phono3py:
  version: 2.0.0
  frequency_unit_conversion_factor: 15.633302
  symmetry_tolerance: 1.00000e-05
  configuration:
    mesh_numbers: "11 11 11"
    bterta: ".true."
    read_fc2: ".true."
    read_fc3: ".true."

physical_unit:
  atomic_mass: "AMU"
  length: "angstrom"

space_group:
  type: "Fd-3m"
  number: 227
  Hall_symbol: "F 4d 2 3 -1d"

primitive_matrix:
- [  0.000000000000000,  0.500000000000000,  0.500000000000000 ]
- [  0.500000000000000,  0.000000000000000,  0.500000000000000 ]
- [  0.500000000000000,  0.500000000000000,  0.000000000000000 ]

supercell_matrix:
- [   1,   0,   0 ]
- [   0,   1,   0 ]
- [   0,   0,   1 ]

primitive_cell:
  lattice:
  - [     0.000000000000000,     2.733081957865998,     2.733081957865998 ] # a
  - [     2.733081957865998,     0.000000000000000,     2.733081957865998 ] # b
  - [     2.733081957865998,     2.733081957865998,     0.000000000000000 ] # c
  points:
  - symbol: Si # 1
    coordinates: [  0.875000000000000,  0.875000000000000,  0.875000000000000 ]
    mass: 28.085500
  - symbol: Si # 2
    coordinates: [  0.125000000000000,  0.125000000000000,  0.125000000000000 ]
    mass: 28.085500
  reciprocal_lattice: # without 2pi
  - [    -0.182943653980432,     0.182943653980432,     0.182943653980432 ] # a*
  - [     0.182943653980432,    -0.182943653980432,     0.182943653980432 ] # b*
  - [     0.182943653980432,     0.182943653980432,    -0.182943653980432 ] # c*

unit_cell:
  lattice:
  - [     5.466163915731997,     0.000000000000000,     0.000000000000000 ] # a
  - [     0.000000000000000,     5.466163915731997,     0.000000000000000 ] # b
  - [     0.000000000000000,     0.000000000000000,     5.466163915731997 ] # c
  points:
  - symbol: Si # 1
    coordinates: [  0.875000000000000,  0.875000000000000,  0.875000000000000 ]
    mass: 28.085500
    reduced_to: 1
  - symbol: Si # 2
    coordinates: [  0.875000000000000,  0.375000000000000,  0.375000000000000 ]
    mass: 28.085500
    reduced_to: 1
  - symbol: Si # 3
    coordinates: [  0.375000000000000,  0.875000000000000,  0.375000000000000 ]
    mass: 28.085500
    reduced_to: 1
  - symbol: Si # 4
    coordinates: [  0.375000000000000,  0.375000000000000,  0.875000000000000 ]
    mass: 28.085500
    reduced_to: 1
  - symbol: Si # 5
    coordinates: [  0.125000000000000,  0.125000000000000,  0.125000000000000 ]
    mass: 28.085500
    reduced_to: 5
  - symbol: Si # 6
    coordinates: [  0.125000000000000,  0.625000000000000,  0.625000000000000 ]
    mass: 28.085500
    reduced_to: 5
  - symbol: Si # 7
    coordinates: [  0.625000000000000,  0.125000000000000,  0.625000000000000 ]
    mass: 28.085500
    reduced_to: 5
  - symbol: Si # 8
    coordinates: [  0.625000000000000,  0.625000000000000,  0.125000000000000 ]
    mass: 28.085500
    reduced_to: 5

supercell:
  lattice:
  - [     5.466163915731997,     0.000000000000000,     0.000000000000000 ] # a
  - [     0.000000000000000,     5.466163915731997,     0.000000000000000 ] # b
  - [     0.000000000000000,     0.000000000000000,     5.466163915731997 ] # c
  points:
  - symbol: Si # 1
    coordinates: [  0.875000000000000,  0.875000000000000,  0.875000000000000 ]
    mass: 28.085500
    reduced_to: 1
  - symbol: Si # 2
    coordinates: [  0.875000000000000,  0.375000000000000,  0.375000000000000 ]
    mass: 28.085500
    reduced_to: 1
  - symbol: Si # 3
    coordinates: [  0.375000000000000,  0.875000000000000,  0.375000000000000 ]
    mass: 28.085500
    reduced_to: 1
  - symbol: Si # 4
    coordinates: [  0.375000000000000,  0.375000000000000,  0.875000000000000 ]
    mass: 28.085500
    reduced_to: 1
  - symbol: Si # 5
    coordinates: [  0.125000000000000,  0.125000000000000,  0.125000000000000 ]
    mass: 28.085500
    reduced_to: 5
  - symbol: Si # 6
    coordinates: [  0.125000000000000,  0.625000000000000,  0.625000000000000 ]
    mass: 28.085500
    reduced_to: 5
  - symbol: Si # 7
    coordinates: [  0.625000000000000,  0.125000000000000,  0.625000000000000 ]
    mass: 28.085500
    reduced_to: 5
  - symbol: Si # 8
    coordinates: [  0.625000000000000,  0.625000000000000,  0.125000000000000 ]
    mass: 28.085500
    reduced_to: 5

phonon_primitive_cell:
  lattice:
  - [     0.000000000000000,     2.733081957865998,     2.733081957865998 ] # a
  - [     2.733081957865998,     0.000000000000000,     2.733081957865998 ] # b
  - [     2.733081957865998,     2.733081957865998,     0.000000000000000 ] # c
  points:
  - symbol: Si # 1
    coordinates: [  0.875000000000000,  0.875000000000000,  0.875000000000000 ]
    mass: 28.085500
  - symbol: Si # 2
    coordinates: [  0.125000000000000,  0.125000000000000,  0.125000000000000 ]
    mass: 28.085500
  reciprocal_lattice: # without 2pi
  - [    -0.182943653980432,     0.182943653980432,     0.182943653980432 ] # a*
  - [     0.182943653980432,    -0.182943653980432,     0.182943653980432 ] # b*
  - [     0.182943653980432,     0.182943653980432,    -0.182943653980432 ] # c*

phonon_supercell:
  lattice:
  - [     5.466163915731997,     0.000000000000000,     0.000000000000000 ] # a
  - [     0.000000000000000,     5.466163915731997,     0.000000000000000 ] # b
  - [     0.000000000000000,     0.000000000000000,     5.466163915731997 ] # c
  points:
  - symbol: Si # 1
    coordinates: [  0.875000000000000,  0.875000000000000,  0.875000000000000 ]
    mass: 28.085500
    reduced_to: 1
  - symbol: Si # 2
    coordinates: [  0.875000000000000,  0.375000000000000,  0.375000000000000 ]
    mass: 28.085500
    reduced_to: 1
  - symbol: Si # 3
    coordinates: [  0.375000000000000,  0.875000000000000,  0.375000000000000 ]
    mass: 28.085500
    reduced_to: 1
  - symbol: Si # 4
    coordinates: [  0.375000000000000,  0.375000000000000,  0.875000000000000 ]
    mass: 28.085500
    reduced_to: 1
  - symbol: Si # 5
    coordinates: [  0.125000000000000,  0.125000000000000,  0.125000000000000 ]
    mass: 28.085500
    reduced_to: 5
  - symbol: Si # 6
    coordinates: [  0.125000000000000,  0.625000000000000,  0.625000000000000 ]
    mass: 28.085500
    reduced_to: 5
  - symbol: Si # 7
    coordinates: [  0.625000000000000,  0.125000000000000,  0.625000000000000 ]
    mass: 28.085500
    reduced_to: 5
  - symbol: Si # 8
    coordinates: [  0.625000000000000,  0.625000000000000,  0.125000000000000 ]
    mass: 28.085500
    reduced_to: 5
