phono3py:
  version: 2.0.0
  calculator: qe
  frequency_unit_conversion_factor: 15.633302
  symmetry_tolerance: 1.00000e-05
  configuration:
    cell_filename: "Si.in"
    create_displacements: ".true."
    primitive_axes: "F"
    dim: "1 1 1"
    calculator: "qe"

physical_unit:
  atomic_mass: "AMU"
  length: "au"

space_group:
  type: "Fd-3m"
  number: 227
  Hall_symbol: "F 4d 2 3 -1d"

primitive_matrix:
- [  0.000000000000000,  0.500000000000000,  0.500000000000000 ]
- [  0.500000000000000,  0.000000000000000,  0.500000000000000 ]
- [  0.500000000000000,  0.500000000000000,  0.000000000000000 ]

supercell_matrix:
- [   1,   0,   0 ]
- [   0,   1,   0 ]
- [   0,   0,   1 ]

primitive_cell:
  lattice:
  - [     0.000000000000000,     5.164776410478318,     5.164776410478318 ] # a
  - [     5.164776410478318,     0.000000000000000,     5.164776410478318 ] # b
  - [     5.164776410478318,     5.164776410478318,     0.000000000000000 ] # c
  points:
  - symbol: Si # 1
    coordinates: [  0.875000000000000,  0.875000000000000,  0.875000000000000 ]
    mass: 28.085500
  - symbol: Si # 2
    coordinates: [  0.125000000000000,  0.125000000000000,  0.125000000000000 ]
    mass: 28.085500
  reciprocal_lattice: # without 2pi
  - [    -0.096809611929298,     0.096809611929298,     0.096809611929298 ] # a*
  - [     0.096809611929298,    -0.096809611929298,     0.096809611929298 ] # b*
  - [     0.096809611929298,     0.096809611929298,    -0.096809611929298 ] # c*

unit_cell:
  lattice:
  - [    10.329552820956636,     0.000000000000000,     0.000000000000000 ] # a
  - [     0.000000000000000,    10.329552820956636,     0.000000000000000 ] # b
  - [     0.000000000000000,     0.000000000000000,    10.329552820956636 ] # c
  points:
  - symbol: Si # 1
    coordinates: [  0.875000000000000,  0.875000000000000,  0.875000000000000 ]
    mass: 28.085500
    reduced_to: 1
  - symbol: Si # 2
    coordinates: [  0.875000000000000,  0.375000000000000,  0.375000000000000 ]
    mass: 28.085500
    reduced_to: 1
  - symbol: Si # 3
    coordinates: [  0.375000000000000,  0.875000000000000,  0.375000000000000 ]
    mass: 28.085500
    reduced_to: 1
  - symbol: Si # 4
    coordinates: [  0.375000000000000,  0.375000000000000,  0.875000000000000 ]
    mass: 28.085500
    reduced_to: 1
  - symbol: Si # 5
    coordinates: [  0.125000000000000,  0.125000000000000,  0.125000000000000 ]
    mass: 28.085500
    reduced_to: 5
  - symbol: Si # 6
    coordinates: [  0.125000000000000,  0.625000000000000,  0.625000000000000 ]
    mass: 28.085500
    reduced_to: 5
  - symbol: Si # 7
    coordinates: [  0.625000000000000,  0.125000000000000,  0.625000000000000 ]
    mass: 28.085500
    reduced_to: 5
  - symbol: Si # 8
    coordinates: [  0.625000000000000,  0.625000000000000,  0.125000000000000 ]
    mass: 28.085500
    reduced_to: 5

supercell:
  lattice:
  - [    10.329552820956636,     0.000000000000000,     0.000000000000000 ] # a
  - [     0.000000000000000,    10.329552820956636,     0.000000000000000 ] # b
  - [     0.000000000000000,     0.000000000000000,    10.329552820956636 ] # c
  points:
  - symbol: Si # 1
    coordinates: [  0.875000000000000,  0.875000000000000,  0.875000000000000 ]
    mass: 28.085500
    reduced_to: 1
  - symbol: Si # 2
    coordinates: [  0.875000000000000,  0.375000000000000,  0.375000000000000 ]
    mass: 28.085500
    reduced_to: 1
  - symbol: Si # 3
    coordinates: [  0.375000000000000,  0.875000000000000,  0.375000000000000 ]
    mass: 28.085500
    reduced_to: 1
  - symbol: Si # 4
    coordinates: [  0.375000000000000,  0.375000000000000,  0.875000000000000 ]
    mass: 28.085500
    reduced_to: 1
  - symbol: Si # 5
    coordinates: [  0.125000000000000,  0.125000000000000,  0.125000000000000 ]
    mass: 28.085500
    reduced_to: 5
  - symbol: Si # 6
    coordinates: [  0.125000000000000,  0.625000000000000,  0.625000000000000 ]
    mass: 28.085500
    reduced_to: 5
  - symbol: Si # 7
    coordinates: [  0.625000000000000,  0.125000000000000,  0.625000000000000 ]
    mass: 28.085500
    reduced_to: 5
  - symbol: Si # 8
    coordinates: [  0.625000000000000,  0.625000000000000,  0.125000000000000 ]
    mass: 28.085500
    reduced_to: 5

phonon_primitive_cell:
  lattice:
  - [     0.000000000000000,     5.164776410478318,     5.164776410478318 ] # a
  - [     5.164776410478318,     0.000000000000000,     5.164776410478318 ] # b
  - [     5.164776410478318,     5.164776410478318,     0.000000000000000 ] # c
  points:
  - symbol: Si # 1
    coordinates: [  0.875000000000000,  0.875000000000000,  0.875000000000000 ]
    mass: 28.085500
  - symbol: Si # 2
    coordinates: [  0.125000000000000,  0.125000000000000,  0.125000000000000 ]
    mass: 28.085500
  reciprocal_lattice: # without 2pi
  - [    -0.096809611929298,     0.096809611929298,     0.096809611929298 ] # a*
  - [     0.096809611929298,    -0.096809611929298,     0.096809611929298 ] # b*
  - [     0.096809611929298,     0.096809611929298,    -0.096809611929298 ] # c*

phonon_supercell:
  lattice:
  - [    10.329552820956636,     0.000000000000000,     0.000000000000000 ] # a
  - [     0.000000000000000,    10.329552820956636,     0.000000000000000 ] # b
  - [     0.000000000000000,     0.000000000000000,    10.329552820956636 ] # c
  points:
  - symbol: Si # 1
    coordinates: [  0.875000000000000,  0.875000000000000,  0.875000000000000 ]
    mass: 28.085500
    reduced_to: 1
  - symbol: Si # 2
    coordinates: [  0.875000000000000,  0.375000000000000,  0.375000000000000 ]
    mass: 28.085500
    reduced_to: 1
  - symbol: Si # 3
    coordinates: [  0.375000000000000,  0.875000000000000,  0.375000000000000 ]
    mass: 28.085500
    reduced_to: 1
  - symbol: Si # 4
    coordinates: [  0.375000000000000,  0.375000000000000,  0.875000000000000 ]
    mass: 28.085500
    reduced_to: 1
  - symbol: Si # 5
    coordinates: [  0.125000000000000,  0.125000000000000,  0.125000000000000 ]
    mass: 28.085500
    reduced_to: 5
  - symbol: Si # 6
    coordinates: [  0.125000000000000,  0.625000000000000,  0.625000000000000 ]
    mass: 28.085500
    reduced_to: 5
  - symbol: Si # 7
    coordinates: [  0.625000000000000,  0.125000000000000,  0.625000000000000 ]
    mass: 28.085500
    reduced_to: 5
  - symbol: Si # 8
    coordinates: [  0.625000000000000,  0.625000000000000,  0.125000000000000 ]
    mass: 28.085500
    reduced_to: 5

displacement_pairs:
- atom:    1
  displacement:
    [  0.0600000000000000,  0.0000000000000000,  0.0000000000000000 ]
  displacement_id: 1
  paired_with:
  - atom:    1
    pair_distance: 0.00000000
    displacements:
    - [  0.0424264068711929,  0.0424264068711929,  0.0000000000000000 ]
    - [ -0.0424264068711929, -0.0424264068711929,  0.0000000000000000 ]
    displacement_ids: [ 2, 3 ]
  - atom:    2
    pair_distance: 7.30409685
    displacements:
    - [  0.0424264068711929,  0.0424264068711929,  0.0000000000000000 ]
    - [ -0.0424264068711929, -0.0424264068711929,  0.0000000000000000 ]
    displacement_ids: [ 4, 5 ]
  - atom:    3
    pair_distance: 7.30409685
    displacements:
    - [  0.0424264068711929,  0.0424264068711929,  0.0000000000000000 ]
    - [ -0.0424264068711929, -0.0424264068711929,  0.0000000000000000 ]
    - [  0.0000000000000000,  0.0000000000000000,  0.0600000000000000 ]
    displacement_ids: [ 6, 7, 8 ]
  - atom:    5
    pair_distance: 4.47282758
    displacements:
    - [  0.0000000000000000,  0.0600000000000000,  0.0000000000000000 ]
    - [  0.0000000000000000, -0.0600000000000000,  0.0000000000000000 ]
    - [  0.0600000000000000,  0.0000000000000000,  0.0000000000000000 ]
    - [ -0.0600000000000000,  0.0000000000000000,  0.0000000000000000 ]
    displacement_ids: [ 9, 10, 11, 12 ]
  - atom:    7
    pair_distance: 4.47282758
    displacements:
    - [  0.0000000000000000,  0.0600000000000000,  0.0000000000000000 ]
    - [  0.0000000000000000, -0.0600000000000000,  0.0000000000000000 ]
    - [  0.0600000000000000,  0.0000000000000000,  0.0000000000000000 ]
    - [ -0.0600000000000000,  0.0000000000000000,  0.0000000000000000 ]
    displacement_ids: [ 13, 14, 15, 16 ]

displacement_pair_info:
  number_of_singles: 1
  number_of_pairs: 15