
     Program PWSCF v.6.2 (svn rev. 13949:13950) starts on 24Oct2021 at 11:48:25 

     This program is part of the open-source Quantum ESPRESSO suite
     for quantum simulation of materials; please cite
         "P. Giannozzi et al., J. Phys.:Condens. Matter 21 395502 (2009);
         "P. Giannozzi et al., J. Phys.:Condens. Matter 29 465901 (2017);
          URL http://www.quantum-espresso.org", 
     in publications or presentations arising from this work. More details at
     http://www.quantum-espresso.org/quote

     Parallel version (MPI), running on     4 processors

     MPI processes distributed on     1 nodes
     R & G space division:  proc/nbgrp/npool/nimage =       4
     Reading input from headeradd_supercell-00004.in

     Current dimensions of program PWSCF are:
     Max number of different atomic species (ntypx) = 10
     Max number of k-points (npk) =  40000
     Max angular momentum in pseudopotentials (lmaxx) =  3
     Message from routine iosys:
     minimal I/O required, wf_collect reset to FALSE
               file Si.pbe-n-kjpaw_psl.0.1.UPF: wavefunction(s)  3S renormalized

     Subspace diagonalization in iterative solution of the eigenvalue problem:
     a serial algorithm will be used


     Parallelization info
     --------------------
     sticks:   dense  smooth     PW     G-vecs:    dense   smooth      PW
     Min         593     593    164                21816    21816    3132
     Max         595     595    165                21819    21819    3135
     Sum        2377    2377    657                87271    87271   12533



     bravais-lattice index     =            0
     lattice parameter (alat)  =      10.3296  a.u.
     unit-cell volume          =    1102.1598 (a.u.)^3
     number of atoms/cell      =            8
     number of atomic types    =            1
     number of electrons       =        32.00
     number of Kohn-Sham states=           16
     kinetic-energy cutoff     =      70.0000  Ry
     charge density cutoff     =     280.0000  Ry
     convergence threshold     =      1.0E-09
     mixing beta               =       0.7000
     number of iterations used =            8  plain     mixing
     Exchange-correlation      =  SLA  PW   PBX  PBC ( 1  4  3  4 0 0)

     celldm(1)=  10.329553  celldm(2)=   0.000000  celldm(3)=   0.000000
     celldm(4)=   0.000000  celldm(5)=   0.000000  celldm(6)=   0.000000

     crystal axes: (cart. coord. in units of alat)
               a(1) = (   1.000000   0.000000   0.000000 )  
               a(2) = (   0.000000   1.000000   0.000000 )  
               a(3) = (   0.000000   0.000000   1.000000 )  

     reciprocal axes: (cart. coord. in units 2 pi/alat)
               b(1) = (  1.000000  0.000000  0.000000 )  
               b(2) = (  0.000000  1.000000  0.000000 )  
               b(3) = (  0.000000  0.000000  1.000000 )  


     PseudoPot. # 1 for Si read from file:
     /home/uezono/pseudo/Si.pbe-n-kjpaw_psl.0.1.UPF
     MD5 check sum: 0810ef13ebffcf5dbabd57b297315270
     Pseudo is Projector augmented-wave + core cor, Zval =  4.0
     Generated using "atomic" code by A. Dal Corso  v.5.0.2 svn rev. 9415
     Shape of augmentation charge: PSQ
     Using radial grid of 1141 points,  4 beta functions with: 
                l(1) =   0
                l(2) =   0
                l(3) =   1
                l(4) =   1
     Q(r) pseudized with 0 coefficients 


     atomic species   valence    mass     pseudopotential
        Si             4.00    28.08550     Si( 1.00)

     No symmetry found



   Cartesian axes

     site n.     atom                  positions (alat units)
         1           Si  tau(   1) = (   0.8808086   0.8750000   0.8750000  )
         2           Si  tau(   2) = (   0.8791073   0.3791073   0.3750000  )
         3           Si  tau(   3) = (   0.3750000   0.8750000   0.3750000  )
         4           Si  tau(   4) = (   0.3750000   0.3750000   0.8750000  )
         5           Si  tau(   5) = (   0.1250000   0.1250000   0.1250000  )
         6           Si  tau(   6) = (   0.1250000   0.6250000   0.6250000  )
         7           Si  tau(   7) = (   0.6250000   0.1250000   0.6250000  )
         8           Si  tau(   8) = (   0.6250000   0.6250000   0.1250000  )

     number of k points=    32
                       cart. coord. in units 2pi/alat
        k(    1) = (   0.1250000   0.1250000   0.1250000), wk =   0.0625000
        k(    2) = (   0.1250000   0.1250000   0.3750000), wk =   0.0625000
        k(    3) = (   0.1250000   0.3750000   0.3750000), wk =   0.0625000
        k(    4) = (   0.3750000   0.3750000   0.3750000), wk =   0.0625000
        k(    5) = (  -0.1250000  -0.1250000   0.1250000), wk =   0.0625000
        k(    6) = (  -0.1250000   0.1250000  -0.1250000), wk =   0.0625000
        k(    7) = (   0.1250000  -0.1250000  -0.1250000), wk =   0.0625000
        k(    8) = (  -0.1250000  -0.1250000   0.3750000), wk =   0.0625000
        k(    9) = (  -0.1250000   0.1250000  -0.3750000), wk =   0.0625000
        k(   10) = (   0.1250000  -0.1250000  -0.3750000), wk =   0.0625000
        k(   11) = (   0.3750000  -0.1250000   0.1250000), wk =   0.0625000
        k(   12) = (  -0.3750000  -0.1250000  -0.1250000), wk =   0.0625000
        k(   13) = (   0.3750000   0.1250000  -0.1250000), wk =   0.0625000
        k(   14) = (  -0.3750000   0.1250000   0.1250000), wk =   0.0625000
        k(   15) = (  -0.1250000   0.3750000   0.1250000), wk =   0.0625000
        k(   16) = (  -0.1250000  -0.3750000  -0.1250000), wk =   0.0625000
        k(   17) = (   0.1250000   0.3750000  -0.1250000), wk =   0.0625000
        k(   18) = (   0.1250000  -0.3750000   0.1250000), wk =   0.0625000
        k(   19) = (  -0.1250000  -0.3750000   0.3750000), wk =   0.0625000
        k(   20) = (  -0.1250000   0.3750000  -0.3750000), wk =   0.0625000
        k(   21) = (   0.1250000  -0.3750000  -0.3750000), wk =   0.0625000
        k(   22) = (   0.3750000   0.1250000  -0.3750000), wk =   0.0625000
        k(   23) = (  -0.3750000  -0.1250000  -0.3750000), wk =   0.0625000
        k(   24) = (   0.3750000  -0.1250000   0.3750000), wk =   0.0625000
        k(   25) = (  -0.3750000   0.1250000   0.3750000), wk =   0.0625000
        k(   26) = (   0.3750000  -0.3750000   0.1250000), wk =   0.0625000
        k(   27) = (  -0.3750000  -0.3750000  -0.1250000), wk =   0.0625000
        k(   28) = (   0.3750000   0.3750000  -0.1250000), wk =   0.0625000
        k(   29) = (  -0.3750000   0.3750000   0.1250000), wk =   0.0625000
        k(   30) = (  -0.3750000  -0.3750000   0.3750000), wk =   0.0625000
        k(   31) = (  -0.3750000   0.3750000  -0.3750000), wk =   0.0625000
        k(   32) = (   0.3750000  -0.3750000  -0.3750000), wk =   0.0625000

     Dense  grid:    87271 G-vectors     FFT dimensions: (  60,  60,  60)

     Estimated max dynamical RAM per process >      59.84 MB

     Estimated total dynamical RAM >     239.35 MB

     Initial potential from superposition of free atoms

     starting charge   31.99553, renormalised to   32.00000
     Starting wfc are   32 randomized atomic wfcs
     Checking if some PAW data can be deallocated... 

     total cpu time spent up to now is        1.8 secs

     Self-consistent Calculation

     iteration #  1     ecut=    70.00 Ry     beta= 0.70
     Davidson diagonalization with overlap
     ethr =  1.00E-02,  avg # of iterations =  2.0

     Threshold (ethr) on eigenvalues was too large:
     Diagonalizing with lowered threshold

     Davidson diagonalization with overlap
     ethr =  6.98E-04,  avg # of iterations =  1.0

     total cpu time spent up to now is        5.9 secs

     total energy              =    -373.80692207 Ry
     Harris-Foulkes estimate   =    -373.85902244 Ry
     estimated scf accuracy    <       0.22076373 Ry

     iteration #  2     ecut=    70.00 Ry     beta= 0.70
     Davidson diagonalization with overlap
     ethr =  6.90E-04,  avg # of iterations =  1.0

     total cpu time spent up to now is        7.7 secs

     total energy              =    -373.81484260 Ry
     Harris-Foulkes estimate   =    -373.81538917 Ry
     estimated scf accuracy    <       0.00978656 Ry

     iteration #  3     ecut=    70.00 Ry     beta= 0.70
     Davidson diagonalization with overlap
     ethr =  3.06E-05,  avg # of iterations =  2.3

     total cpu time spent up to now is        9.9 secs

     total energy              =    -373.81593652 Ry
     Harris-Foulkes estimate   =    -373.81600801 Ry
     estimated scf accuracy    <       0.00020854 Ry

     iteration #  4     ecut=    70.00 Ry     beta= 0.70
     Davidson diagonalization with overlap
     ethr =  6.52E-07,  avg # of iterations =  3.2

     total cpu time spent up to now is       12.8 secs

     total energy              =    -373.81604324 Ry
     Harris-Foulkes estimate   =    -373.81604821 Ry
     estimated scf accuracy    <       0.00001191 Ry

     iteration #  5     ecut=    70.00 Ry     beta= 0.70
     Davidson diagonalization with overlap
     ethr =  3.72E-08,  avg # of iterations =  3.1

     total cpu time spent up to now is       15.5 secs

     total energy              =    -373.81604702 Ry
     Harris-Foulkes estimate   =    -373.81604766 Ry
     estimated scf accuracy    <       0.00000131 Ry

     iteration #  6     ecut=    70.00 Ry     beta= 0.70
     Davidson diagonalization with overlap
     ethr =  4.09E-09,  avg # of iterations =  2.6

     total cpu time spent up to now is       18.1 secs

     total energy              =    -373.81604735 Ry
     Harris-Foulkes estimate   =    -373.81604741 Ry
     estimated scf accuracy    <       0.00000005 Ry

     iteration #  7     ecut=    70.00 Ry     beta= 0.70
     Davidson diagonalization with overlap
     ethr =  1.60E-10,  avg # of iterations =  2.8

     total cpu time spent up to now is       20.7 secs

     total energy              =    -373.81604736 Ry
     Harris-Foulkes estimate   =    -373.81604737 Ry
     estimated scf accuracy    <          4.2E-09 Ry

     iteration #  8     ecut=    70.00 Ry     beta= 0.70
     Davidson diagonalization with overlap
     ethr =  1.31E-11,  avg # of iterations =  3.0

     total cpu time spent up to now is       23.4 secs

     End of self-consistent calculation

          k = 0.1250 0.1250 0.1250 ( 10891 PWs)   bands (ev):

    -5.6258  -2.6308  -2.5846  -2.5660  -0.8018  -0.7663  -0.7480   2.6050
     2.6203   2.6369   3.3693   3.3860   3.3960   4.3747   5.7138   5.7816

          k = 0.1250 0.1250 0.3750 ( 10909 PWs)   bands (ev):

    -5.0956  -4.0694  -2.4349  -2.4111  -0.8905  -0.8545   1.1151   2.0065
     2.0205   2.7578   3.1016   3.1259   3.3556   3.8431   4.7101   4.8330

          k = 0.1250 0.3750 0.3750 ( 10902 PWs)   bands (ev):

    -4.5927  -3.6882  -3.6286  -2.9427  -0.6067   0.2311   0.2664   1.3753
     2.0740   2.7241   2.7535   3.7365   4.0433   4.1267   4.1835   5.2912

          k = 0.3750 0.3750 0.3750 ( 10927 PWs)   bands (ev):

    -4.1561  -3.5070  -3.4492  -3.4288  -0.6824  -0.6527  -0.6027   0.0913
     3.6827   3.7303   3.7590   4.4785   4.4934   4.5038   4.9197   4.9842

          k =-0.1250-0.1250 0.1250 ( 10891 PWs)   bands (ev):

    -5.6271  -2.6149  -2.5950  -2.5505  -0.8131  -0.7939  -0.7594   2.6427
     2.6584   2.6738   3.3445   3.3586   3.3771   4.4533   5.6681   5.7347

          k =-0.1250 0.1250-0.1250 ( 10891 PWs)   bands (ev):

    -5.6267  -2.6185  -2.5912  -2.5570  -0.8126  -0.7733  -0.7658   2.6329
     2.6475   2.6612   3.3454   3.3624   3.3940   4.4297   5.6668   5.7639

          k = 0.1250-0.1250-0.1250 ( 10891 PWs)   bands (ev):

    -5.6262  -2.6247  -2.5881  -2.5625  -0.7934  -0.7887  -0.7488   2.6156
     2.6323   2.6469   3.3537   3.3827   3.3950   4.3971   5.6859   5.7833

          k =-0.1250-0.1250 0.3750 ( 10909 PWs)   bands (ev):

    -5.0999  -4.0608  -2.4320  -2.4081  -0.9005  -0.8645   1.0519   2.0365
     2.0471   2.8389   3.0847   3.1067   3.4254   3.8386   4.7112   4.7370

          k =-0.1250 0.1250-0.3750 ( 10909 PWs)   bands (ev):

    -5.0987  -4.0633  -2.4435  -2.3974  -0.9189  -0.8413   1.0703   2.0263
     2.0417   2.8139   3.0761   3.1255   3.4037   3.8416   4.7027   4.7740

          k = 0.1250-0.1250-0.3750 ( 10909 PWs)   bands (ev):

    -5.0969  -4.0669  -2.4447  -2.3987  -0.9141  -0.8379   1.0965   2.0123
     2.0322   2.7804   3.0826   3.1342   3.3747   3.8433   4.7054   4.8106

          k = 0.3750-0.1250 0.1250 ( 10909 PWs)   bands (ev):

    -5.0990  -4.0646  -2.4455  -2.3831  -0.9087  -0.8794   1.0989   2.0306
     2.0546   2.7943   3.0925   3.1094   3.4015   3.8092   4.6809   4.8213

          k =-0.3750-0.1250-0.1250 ( 10909 PWs)   bands (ev):

    -5.0978  -4.0623  -2.4625  -2.3993  -0.8751  -0.8453   1.0901   1.9940
     2.0215   2.7703   3.1089   3.1307   3.3532   3.8634   4.7476   4.7727

          k = 0.3750 0.1250-0.1250 ( 10909 PWs)   bands (ev):

    -5.1002  -4.0621  -2.4448  -2.3819  -0.9113  -0.8828   1.0808   2.0359
     2.0664   2.8166   3.0850   3.1054   3.4235   3.8079   4.6831   4.7909

          k =-0.3750 0.1250 0.1250 ( 10909 PWs)   bands (ev):

    -5.0990  -4.0596  -2.4617  -2.3985  -0.8782  -0.8479   1.0710   2.0047
     2.0267   2.7957   3.1057   3.1238   3.3725   3.8620   4.7344   4.7584

          k =-0.1250 0.3750 0.1250 ( 10909 PWs)   bands (ev):

    -5.0968  -4.0682  -2.4395  -2.3984  -0.9087  -0.8544   1.1080   2.0161
     2.0347   2.7732   3.0890   3.1264   3.3751   3.8310   4.6952   4.8305

          k =-0.1250-0.3750-0.1250 ( 10909 PWs)   bands (ev):

    -5.0962  -4.0673  -2.4462  -2.4054  -0.8943  -0.8407   1.1045   2.0020
     2.0197   2.7640   3.0968   3.1343   3.3542   3.8532   4.7225   4.8111

          k = 0.1250 0.3750-0.1250 ( 10909 PWs)   bands (ev):

    -5.0997  -4.0621  -2.4375  -2.3961  -0.9166  -0.8607   1.0636   2.0391
     2.0517   2.8304   3.0777   3.1120   3.4242   3.8276   4.6972   4.7616

          k = 0.1250-0.3750 0.1250 ( 10909 PWs)   bands (ev):

    -5.0993  -4.0611  -2.4444  -2.4032  -0.9021  -0.8470   1.0594   2.0233
     2.0383   2.8214   3.0852   3.1199   3.4043   3.8504   4.7123   4.7540

          k =-0.1250-0.3750 0.3750 ( 10902 PWs)   bands (ev):

    -4.6045  -3.6671  -3.6082  -2.9743  -0.5460   0.1547   0.1898   1.4578
     2.1054   2.7329   2.7629   3.7328   4.0988   4.1200   4.1883   5.1998

          k =-0.1250 0.3750-0.3750 ( 10902 PWs)   bands (ev):

    -4.6027  -3.6673  -3.6083  -2.9817  -0.5264   0.1573   0.1921   1.4437
     2.0914   2.7200   2.7553   3.7476   4.1020   4.1226   4.2011   5.1962

          k = 0.1250-0.3750-0.3750 ( 10902 PWs)   bands (ev):

    -4.5945  -3.6879  -3.6286  -2.9347  -0.6268   0.2288   0.2635   1.3901
     2.0868   2.7317   2.7688   3.7231   4.0279   4.1224   4.1819   5.2951

          k = 0.3750 0.1250-0.3750 ( 10902 PWs)   bands (ev):

    -4.6037  -3.6556  -3.6314  -2.9560  -0.5843   0.1729   0.2109   1.4491
     2.1067   2.7394   2.7723   3.7171   4.0948   4.1306   4.1520   5.2300

          k =-0.3750-0.1250-0.3750 ( 10902 PWs)   bands (ev):

    -4.5953  -3.6665  -3.6383  -2.9584  -0.5697   0.2091   0.2481   1.3859
     2.0672   2.7154   2.7458   3.7468   4.0906   4.1298   4.1748   5.2604

          k = 0.3750-0.1250 0.3750 ( 10902 PWs)   bands (ev):

    -4.5996  -3.6646  -3.6394  -2.9395  -0.6179   0.2033   0.2415   1.4210
     2.0995   2.7409   2.7726   3.7114   4.0714   4.1082   4.1687   5.2694

          k =-0.3750 0.1250 0.3750 ( 10902 PWs)   bands (ev):

    -4.5995  -3.6575  -3.6302  -2.9744  -0.5366   0.1784   0.2173   1.4143
     2.0748   2.7153   2.7447   3.7499   4.1178   4.1425   4.1665   5.2209

          k = 0.3750-0.3750 0.1250 ( 10902 PWs)   bands (ev):

    -4.6010  -3.6548  -3.6407  -2.9514  -0.5912   0.1815   0.2347   1.4284
     2.0958   2.7298   2.7719   3.7210   4.1005   4.1128   4.1602   5.2486

          k =-0.3750-0.3750-0.1250 ( 10902 PWs)   bands (ev):

    -4.5967  -3.6622  -3.6341  -2.9698  -0.5436   0.1928   0.2364   1.3928
     2.0640   2.7133   2.7360   3.7539   4.1167   4.1394   4.1678   5.2380

          k = 0.3750 0.3750-0.1250 ( 10902 PWs)   bands (ev):

    -4.6027  -3.6608  -3.6345  -2.9435  -0.6114   0.1846   0.2274   1.4422
     2.1093   2.7491   2.7738   3.7061   4.0890   4.1082   4.1584   5.2509

          k =-0.3750 0.3750 0.1250 ( 10902 PWs)   bands (ev):

    -4.5985  -3.6577  -3.6382  -2.9623  -0.5631   0.1847   0.2387   1.4079
     2.0770   2.7157   2.7555   3.7408   4.1106   4.1273   4.1637   5.2434

          k =-0.3750-0.3750 0.3750 ( 10927 PWs)   bands (ev):

    -4.1765  -3.4810  -3.4597  -3.4041  -0.7222  -0.6726  -0.6444   0.1632
     3.7524   3.7813   3.8239   4.4245   4.4493   4.4675   4.9007   4.9555

          k =-0.3750 0.3750-0.3750 ( 10927 PWs)   bands (ev):

    -4.1707  -3.4865  -3.4638  -3.4059  -0.7196  -0.6716  -0.6188   0.1425
     3.7403   3.7624   3.7985   4.4294   4.4578   4.4956   4.8946   4.9760

          k = 0.3750-0.3750-0.3750 ( 10927 PWs)   bands (ev):

    -4.1622  -3.5052  -3.4453  -3.4224  -0.7090  -0.6535  -0.6054   0.1126
     3.7058   3.7487   3.7698   4.4542   4.4858   4.4987   4.8995   4.9905

     highest occupied level (ev):     5.7833

!    total energy              =    -373.81604736 Ry
     Harris-Foulkes estimate   =    -373.81604736 Ry
     estimated scf accuracy    <          3.5E-10 Ry

     total all-electron energy =     -4640.582992 Ry

     The total energy is the sum of the following terms:

     one-electron contribution =      22.32231994 Ry
     hartree contribution      =       4.46411981 Ry
     xc contribution           =     -48.93016972 Ry
     ewald contribution        =     -66.74781454 Ry
     one-center paw contrib.   =    -284.92450285 Ry

     convergence has been achieved in   8 iterations

     Forces acting on atoms (cartesian axes, Ry/au):

     atom    1 type  1   force =    -0.01768454    0.00078453   -0.00002046
     atom    2 type  1   force =    -0.01357604   -0.01147284   -0.00059640
     atom    3 type  1   force =     0.00189046    0.00078516   -0.00000118
     atom    4 type  1   force =     0.00189071   -0.00148860   -0.00001129
     atom    5 type  1   force =     0.00490004    0.00381079    0.00298978
     atom    6 type  1   force =     0.00913201    0.00210335    0.00133747
     atom    7 type  1   force =     0.00861426    0.00193477   -0.00102259
     atom    8 type  1   force =     0.00483309    0.00354285   -0.00267533

     Total force =     0.029980     Total SCF correction =     0.000021


     Computing stress (Cartesian axis) and pressure

          total   stress  (Ry/bohr**3)                   (kbar)     P=    0.28
   0.00000079   0.00000072   0.00001348          0.12      0.11      1.98
   0.00000072   0.00000215   0.00003254          0.11      0.32      4.79
   0.00001348   0.00003254   0.00000279          1.98      4.79      0.41


     init_run     :      1.66s CPU      1.67s WALL (       1 calls)
     electrons    :     21.58s CPU     21.68s WALL (       1 calls)
     forces       :      0.43s CPU      0.44s WALL (       1 calls)
     stress       :      1.09s CPU      1.09s WALL (       1 calls)

     Called by init_run:
     wfcinit      :      1.38s CPU      1.39s WALL (       1 calls)
     potinit      :      0.12s CPU      0.12s WALL (       1 calls)

     Called by electrons:
     c_bands      :     17.25s CPU     17.34s WALL (       9 calls)
     sum_band     :      3.35s CPU      3.36s WALL (       9 calls)
     v_of_rho     :      0.27s CPU      0.27s WALL (       9 calls)
     newd         :      0.14s CPU      0.13s WALL (       9 calls)
     PAW_pot      :      0.65s CPU      0.66s WALL (       9 calls)
     mix_rho      :      0.04s CPU      0.03s WALL (       9 calls)

     Called by c_bands:
     init_us_2    :      0.79s CPU      0.79s WALL (     672 calls)
     cegterg      :     16.18s CPU     16.31s WALL (     288 calls)

     Called by sum_band:
     sum_band:bec :      0.01s CPU      0.00s WALL (     288 calls)
     addusdens    :      0.13s CPU      0.13s WALL (       9 calls)

     Called by *egterg:
     h_psi        :     14.12s CPU     14.17s WALL (     993 calls)
     s_psi        :      0.96s CPU      0.84s WALL (     993 calls)
     g_psi        :      0.06s CPU      0.07s WALL (     673 calls)
     cdiaghg      :      0.34s CPU      0.30s WALL (     929 calls)

     Called by h_psi:
     h_psi:pot    :     13.98s CPU     14.04s WALL (     993 calls)
     h_psi:calbec :      0.87s CPU      0.92s WALL (     993 calls)
     vloc_psi     :     12.40s CPU     12.42s WALL (     993 calls)
     add_vuspsi   :      0.70s CPU      0.69s WALL (     993 calls)

     General routines
     calbec       :      1.40s CPU      1.45s WALL (    1441 calls)
     fft          :      0.09s CPU      0.11s WALL (     144 calls)
     fftw         :     11.46s CPU     11.49s WALL (   32442 calls)

     Parallel routines
     fft_scatt_xy :      1.13s CPU      1.18s WALL (   32586 calls)
     fft_scatt_yz :      1.82s CPU      1.82s WALL (   32586 calls)

     PWSCF        :    24.85s CPU        24.98s WALL


   This run was terminated on:  11:48:50  24Oct2021            

=------------------------------------------------------------------------------=
   JOB DONE.
=------------------------------------------------------------------------------=
Note: The following floating-point exceptions are signalling: IEEE_UNDERFLOW_FLAG IEEE_DENORMAL
