
     Program PWSCF v.6.2 (svn rev. 13949:13950) starts on 24Oct2021 at 11:48: 1 

     This program is part of the open-source Quantum ESPRESSO suite
     for quantum simulation of materials; please cite
         "P. Giannozzi et al., J. Phys.:Condens. Matter 21 395502 (2009);
         "P. Giannozzi et al., J. Phys.:Condens. Matter 29 465901 (2017);
          URL http://www.quantum-espresso.org", 
     in publications or presentations arising from this work. More details at
     http://www.quantum-espresso.org/quote

     Parallel version (MPI), running on     4 processors

     MPI processes distributed on     1 nodes
     R & G space division:  proc/nbgrp/npool/nimage =       4
     Reading input from headeradd_supercell-00003.in

     Current dimensions of program PWSCF are:
     Max number of different atomic species (ntypx) = 10
     Max number of k-points (npk) =  40000
     Max angular momentum in pseudopotentials (lmaxx) =  3
     Message from routine iosys:
     minimal I/O required, wf_collect reset to FALSE
               file Si.pbe-n-kjpaw_psl.0.1.UPF: wavefunction(s)  3S renormalized

     Subspace diagonalization in iterative solution of the eigenvalue problem:
     a serial algorithm will be used


     Parallelization info
     --------------------
     sticks:   dense  smooth     PW     G-vecs:    dense   smooth      PW
     Min         593     593    164                21816    21816    3132
     Max         595     595    165                21819    21819    3135
     Sum        2377    2377    657                87271    87271   12533



     bravais-lattice index     =            0
     lattice parameter (alat)  =      10.3296  a.u.
     unit-cell volume          =    1102.1598 (a.u.)^3
     number of atoms/cell      =            8
     number of atomic types    =            1
     number of electrons       =        32.00
     number of Kohn-Sham states=           16
     kinetic-energy cutoff     =      70.0000  Ry
     charge density cutoff     =     280.0000  Ry
     convergence threshold     =      1.0E-09
     mixing beta               =       0.7000
     number of iterations used =            8  plain     mixing
     Exchange-correlation      =  SLA  PW   PBX  PBC ( 1  4  3  4 0 0)

     celldm(1)=  10.329553  celldm(2)=   0.000000  celldm(3)=   0.000000
     celldm(4)=   0.000000  celldm(5)=   0.000000  celldm(6)=   0.000000

     crystal axes: (cart. coord. in units of alat)
               a(1) = (   1.000000   0.000000   0.000000 )  
               a(2) = (   0.000000   1.000000   0.000000 )  
               a(3) = (   0.000000   0.000000   1.000000 )  

     reciprocal axes: (cart. coord. in units 2 pi/alat)
               b(1) = (  1.000000  0.000000  0.000000 )  
               b(2) = (  0.000000  1.000000  0.000000 )  
               b(3) = (  0.000000  0.000000  1.000000 )  


     PseudoPot. # 1 for Si read from file:
     /home/uezono/pseudo/Si.pbe-n-kjpaw_psl.0.1.UPF
     MD5 check sum: 0810ef13ebffcf5dbabd57b297315270
     Pseudo is Projector augmented-wave + core cor, Zval =  4.0
     Generated using "atomic" code by A. Dal Corso  v.5.0.2 svn rev. 9415
     Shape of augmentation charge: PSQ
     Using radial grid of 1141 points,  4 beta functions with: 
                l(1) =   0
                l(2) =   0
                l(3) =   1
                l(4) =   1
     Q(r) pseudized with 0 coefficients 


     atomic species   valence    mass     pseudopotential
        Si             4.00    28.08550     Si( 1.00)

     No symmetry found



   Cartesian axes

     site n.     atom                  positions (alat units)
         1           Si  tau(   1) = (   0.8767013   0.8708927   0.8750000  )
         2           Si  tau(   2) = (   0.8750000   0.3750000   0.3750000  )
         3           Si  tau(   3) = (   0.3750000   0.8750000   0.3750000  )
         4           Si  tau(   4) = (   0.3750000   0.3750000   0.8750000  )
         5           Si  tau(   5) = (   0.1250000   0.1250000   0.1250000  )
         6           Si  tau(   6) = (   0.1250000   0.6250000   0.6250000  )
         7           Si  tau(   7) = (   0.6250000   0.1250000   0.6250000  )
         8           Si  tau(   8) = (   0.6250000   0.6250000   0.1250000  )

     number of k points=    32
                       cart. coord. in units 2pi/alat
        k(    1) = (   0.1250000   0.1250000   0.1250000), wk =   0.0625000
        k(    2) = (   0.1250000   0.1250000   0.3750000), wk =   0.0625000
        k(    3) = (   0.1250000   0.3750000   0.3750000), wk =   0.0625000
        k(    4) = (   0.3750000   0.3750000   0.3750000), wk =   0.0625000
        k(    5) = (  -0.1250000  -0.1250000   0.1250000), wk =   0.0625000
        k(    6) = (  -0.1250000   0.1250000  -0.1250000), wk =   0.0625000
        k(    7) = (   0.1250000  -0.1250000  -0.1250000), wk =   0.0625000
        k(    8) = (  -0.1250000  -0.1250000   0.3750000), wk =   0.0625000
        k(    9) = (  -0.1250000   0.1250000  -0.3750000), wk =   0.0625000
        k(   10) = (   0.1250000  -0.1250000  -0.3750000), wk =   0.0625000
        k(   11) = (   0.3750000  -0.1250000   0.1250000), wk =   0.0625000
        k(   12) = (  -0.3750000  -0.1250000  -0.1250000), wk =   0.0625000
        k(   13) = (   0.3750000   0.1250000  -0.1250000), wk =   0.0625000
        k(   14) = (  -0.3750000   0.1250000   0.1250000), wk =   0.0625000
        k(   15) = (  -0.1250000   0.3750000   0.1250000), wk =   0.0625000
        k(   16) = (  -0.1250000  -0.3750000  -0.1250000), wk =   0.0625000
        k(   17) = (   0.1250000   0.3750000  -0.1250000), wk =   0.0625000
        k(   18) = (   0.1250000  -0.3750000   0.1250000), wk =   0.0625000
        k(   19) = (  -0.1250000  -0.3750000   0.3750000), wk =   0.0625000
        k(   20) = (  -0.1250000   0.3750000  -0.3750000), wk =   0.0625000
        k(   21) = (   0.1250000  -0.3750000  -0.3750000), wk =   0.0625000
        k(   22) = (   0.3750000   0.1250000  -0.3750000), wk =   0.0625000
        k(   23) = (  -0.3750000  -0.1250000  -0.3750000), wk =   0.0625000
        k(   24) = (   0.3750000  -0.1250000   0.3750000), wk =   0.0625000
        k(   25) = (  -0.3750000   0.1250000   0.3750000), wk =   0.0625000
        k(   26) = (   0.3750000  -0.3750000   0.1250000), wk =   0.0625000
        k(   27) = (  -0.3750000  -0.3750000  -0.1250000), wk =   0.0625000
        k(   28) = (   0.3750000   0.3750000  -0.1250000), wk =   0.0625000
        k(   29) = (  -0.3750000   0.3750000   0.1250000), wk =   0.0625000
        k(   30) = (  -0.3750000  -0.3750000   0.3750000), wk =   0.0625000
        k(   31) = (  -0.3750000   0.3750000  -0.3750000), wk =   0.0625000
        k(   32) = (   0.3750000  -0.3750000  -0.3750000), wk =   0.0625000

     Dense  grid:    87271 G-vectors     FFT dimensions: (  60,  60,  60)

     Estimated max dynamical RAM per process >      59.84 MB

     Estimated total dynamical RAM >     239.35 MB

     Initial potential from superposition of free atoms

     starting charge   31.99553, renormalised to   32.00000
     Starting wfc are   32 randomized atomic wfcs
     Checking if some PAW data can be deallocated... 

     total cpu time spent up to now is        1.7 secs

     Self-consistent Calculation

     iteration #  1     ecut=    70.00 Ry     beta= 0.70
     Davidson diagonalization with overlap
     ethr =  1.00E-02,  avg # of iterations =  2.0

     Threshold (ethr) on eigenvalues was too large:
     Diagonalizing with lowered threshold

     Davidson diagonalization with overlap
     ethr =  6.98E-04,  avg # of iterations =  1.0

     total cpu time spent up to now is        5.9 secs

     total energy              =    -373.80771681 Ry
     Harris-Foulkes estimate   =    -373.85977672 Ry
     estimated scf accuracy    <       0.22070601 Ry

     iteration #  2     ecut=    70.00 Ry     beta= 0.70
     Davidson diagonalization with overlap
     ethr =  6.90E-04,  avg # of iterations =  1.0

     total cpu time spent up to now is        7.7 secs

     total energy              =    -373.81562310 Ry
     Harris-Foulkes estimate   =    -373.81616917 Ry
     estimated scf accuracy    <       0.00979028 Ry

     iteration #  3     ecut=    70.00 Ry     beta= 0.70
     Davidson diagonalization with overlap
     ethr =  3.06E-05,  avg # of iterations =  2.3

     total cpu time spent up to now is        9.8 secs

     total energy              =    -373.81671774 Ry
     Harris-Foulkes estimate   =    -373.81679001 Ry
     estimated scf accuracy    <       0.00020891 Ry

     iteration #  4     ecut=    70.00 Ry     beta= 0.70
     Davidson diagonalization with overlap
     ethr =  6.53E-07,  avg # of iterations =  3.2

     total cpu time spent up to now is       12.6 secs

     total energy              =    -373.81682088 Ry
     Harris-Foulkes estimate   =    -373.81682559 Ry
     estimated scf accuracy    <       0.00001175 Ry

     iteration #  5     ecut=    70.00 Ry     beta= 0.70
     Davidson diagonalization with overlap
     ethr =  3.67E-08,  avg # of iterations =  3.1

     total cpu time spent up to now is       15.2 secs

     total energy              =    -373.81682462 Ry
     Harris-Foulkes estimate   =    -373.81682508 Ry
     estimated scf accuracy    <       0.00000091 Ry

     iteration #  6     ecut=    70.00 Ry     beta= 0.70
     Davidson diagonalization with overlap
     ethr =  2.86E-09,  avg # of iterations =  3.2

     total cpu time spent up to now is       17.8 secs

     total energy              =    -373.81682487 Ry
     Harris-Foulkes estimate   =    -373.81682493 Ry
     estimated scf accuracy    <       0.00000006 Ry

     iteration #  7     ecut=    70.00 Ry     beta= 0.70
     Davidson diagonalization with overlap
     ethr =  1.77E-10,  avg # of iterations =  2.2

     total cpu time spent up to now is       20.3 secs

     total energy              =    -373.81682487 Ry
     Harris-Foulkes estimate   =    -373.81682488 Ry
     estimated scf accuracy    <          4.0E-09 Ry

     iteration #  8     ecut=    70.00 Ry     beta= 0.70
     Davidson diagonalization with overlap
     ethr =  1.26E-11,  avg # of iterations =  3.1

     total cpu time spent up to now is       23.0 secs

     End of self-consistent calculation

          k = 0.1250 0.1250 0.1250 ( 10891 PWs)   bands (ev):

    -5.6253  -2.6067  -2.5943  -2.5655  -0.8010  -0.7874  -0.7571   2.6342
     2.6403   2.6554   3.3584   3.3712   3.3805   4.4199   5.6998   5.7402

          k = 0.1250 0.1250 0.3750 ( 10909 PWs)   bands (ev):

    -5.0969  -4.0629  -2.4327  -2.4088  -0.8969  -0.8609   1.0797   2.0256
     2.0374   2.8032   3.0941   3.1168   3.3925   3.8397   4.7130   4.7727

          k = 0.1250 0.3750 0.3750 ( 10902 PWs)   bands (ev):

    -4.5972  -3.6594  -3.6384  -2.9510  -0.5934   0.2004   0.2310   1.4197
     2.0929   2.7394   2.7584   3.7261   4.0929   4.1150   4.1591   5.2538

          k = 0.3750 0.3750 0.3750 ( 10927 PWs)   bands (ev):

    -4.1653  -3.4695  -3.4594  -3.4324  -0.6882  -0.6663  -0.6417   0.1328
     3.7490   3.7565   3.7779   4.4511   4.4697   4.4796   4.9174   4.9527

          k =-0.1250-0.1250 0.1250 ( 10891 PWs)   bands (ev):

    -5.6251  -2.6136  -2.5841  -2.5724  -0.8038  -0.7734  -0.7596   2.6248
     2.6399   2.6458   3.3642   3.3726   3.3855   4.4064   5.7079   5.7480

          k =-0.1250 0.1250-0.1250 ( 10891 PWs)   bands (ev):

    -5.6255  -2.6023  -2.5924  -2.5694  -0.7982  -0.7868  -0.7664   2.6402
     2.6438   2.6596   3.3579   3.3700   3.3733   4.4296   5.7004   5.7281

          k = 0.1250-0.1250-0.1250 ( 10891 PWs)   bands (ev):

    -5.6250  -2.6096  -2.5862  -2.5770  -0.7942  -0.7739  -0.7624   2.6207
     2.6362   2.6399   3.3712   3.3739   3.3857   4.3970   5.7195   5.7474

          k =-0.1250-0.1250 0.3750 ( 10909 PWs)   bands (ev):

    -5.0962  -4.0644  -2.4331  -2.4093  -0.8952  -0.8591   1.0905   2.0206
     2.0327   2.7892   3.0972   3.1201   3.3803   3.8405   4.7123   4.7898

          k =-0.1250 0.1250-0.3750 ( 10909 PWs)   bands (ev):

    -5.0974  -4.0619  -2.4255  -2.4155  -0.8874  -0.8725   1.0720   2.0316
     2.0380   2.8134   3.0978   3.1086   3.4016   3.8387   4.7157   4.7581

          k = 0.1250-0.1250-0.3750 ( 10909 PWs)   bands (ev):

    -5.0957  -4.0655  -2.4266  -2.4168  -0.8833  -0.8683   1.0982   2.0197
     2.0265   2.7797   3.1057   3.1161   3.3723   3.8406   4.7126   4.8007

          k = 0.3750-0.1250 0.1250 ( 10909 PWs)   bands (ev):

    -5.0973  -4.0625  -2.4293  -2.4091  -0.8952  -0.8695   1.0767   2.0307
     2.0418   2.8100   3.0944   3.1111   3.4013   3.8344   4.7088   4.7694

          k =-0.3750-0.1250-0.1250 ( 10909 PWs)   bands (ev):

    -5.0971  -4.0621  -2.4318  -2.4122  -0.8893  -0.8639   1.0751   2.0261
     2.0343   2.8064   3.0980   3.1141   3.3926   3.8437   4.7201   4.7613

          k = 0.3750 0.1250-0.1250 ( 10909 PWs)   bands (ev):

    -5.0961  -4.0651  -2.4300  -2.4101  -0.8924  -0.8665   1.0953   2.0235
     2.0323   2.7863   3.1001   3.1163   3.3804   3.8358   4.7068   4.7993

          k =-0.3750 0.1250 0.1250 ( 10909 PWs)   bands (ev):

    -5.0958  -4.0647  -2.4328  -2.4131  -0.8863  -0.8609   1.0937   2.0163
     2.0275   2.7823   3.1029   3.1200   3.3720   3.8450   4.7186   4.7907

          k =-0.1250 0.3750 0.1250 ( 10909 PWs)   bands (ev):

    -5.0962  -4.0632  -2.4378  -2.4117  -0.8766  -0.8645   1.0875   2.0143
     2.0262   2.7862   3.1082   3.1172   3.3717   3.8503   4.7287   4.7747

          k =-0.1250-0.3750-0.1250 ( 10909 PWs)   bands (ev):

    -5.0968  -4.0642  -2.4308  -2.4047  -0.8909  -0.8785   1.0913   2.0300
     2.0396   2.7956   3.1012   3.1083   3.3922   3.8279   4.6998   4.7960

          k = 0.1250 0.3750-0.1250 ( 10909 PWs)   bands (ev):

    -5.0968  -4.0622  -2.4373  -2.4114  -0.8780  -0.8657   1.0797   2.0189
     2.0284   2.7962   3.1067   3.1141   3.3801   3.8497   4.7296   4.7623

          k = 0.1250-0.3750 0.1250 ( 10909 PWs)   bands (ev):

    -5.0973  -4.0632  -2.4305  -2.4044  -0.8919  -0.8798   1.0836   2.0322
     2.0443   2.8053   3.0982   3.1067   3.4010   3.8273   4.7008   4.7834

          k =-0.1250-0.3750 0.3750 ( 10902 PWs)   bands (ev):

    -4.5972  -3.6564  -3.6346  -2.9655  -0.5597   0.1901   0.2210   1.4169
     2.0827   2.7285   2.7470   3.7420   4.1121   4.1364   4.1511   5.2337

          k =-0.1250 0.3750-0.3750 ( 10902 PWs)   bands (ev):

    -4.5989  -3.6561  -3.6346  -2.9578  -0.5794   0.1876   0.2184   1.4313
     2.0961   2.7400   2.7570   3.7281   4.1070   4.1232   4.1493   5.2375

          k = 0.1250-0.3750-0.3750 ( 10902 PWs)   bands (ev):

    -4.5955  -3.6597  -3.6383  -2.9588  -0.5734   0.2029   0.2336   1.4051
     2.0797   2.7298   2.7462   3.7405   4.1053   4.1202   4.1611   5.2500

          k = 0.3750 0.1250-0.3750 ( 10902 PWs)   bands (ev):

    -4.5953  -3.6638  -3.6391  -2.9487  -0.5971   0.2183   0.2327   1.4070
     2.0873   2.7385   2.7536   3.7297   4.0788   4.1178   4.1658   5.2642

          k =-0.3750-0.1250-0.3750 ( 10902 PWs)   bands (ev):

    -4.5987  -3.6552  -3.6308  -2.9683  -0.5556   0.1887   0.2031   1.4292
     2.0892   2.7334   2.7483   3.7399   4.1102   4.1402   4.1508   5.2232

          k = 0.3750-0.1250 0.3750 ( 10902 PWs)   bands (ev):

    -4.5994  -3.6551  -3.6307  -2.9651  -0.5637   0.1875   0.2021   1.4351
     2.0948   2.7391   2.7514   3.7343   4.1080   4.1395   4.1452   5.2247

          k =-0.3750 0.1250 0.3750 ( 10902 PWs)   bands (ev):

    -4.5946  -3.6639  -3.6392  -2.9520  -0.5888   0.2192   0.2339   1.4009
     2.0819   2.7354   2.7477   3.7359   4.0843   4.1193   4.1667   5.2627

          k = 0.3750-0.3750 0.1250 ( 10902 PWs)   bands (ev):

    -4.5985  -3.6526  -3.6416  -2.9526  -0.5907   0.2000   0.2178   1.4285
     2.0972   2.7452   2.7566   3.7238   4.1040   4.1115   4.1541   5.2463

          k =-0.3750-0.3750-0.1250 ( 10902 PWs)   bands (ev):

    -4.5977  -3.6605  -3.6337  -2.9560  -0.5822   0.1882   0.2314   1.4226
     2.0917   2.7345   2.7583   3.7301   4.1032   4.1195   4.1547   5.2450

          k = 0.3750 0.3750-0.1250 ( 10902 PWs)   bands (ev):

    -4.5967  -3.6607  -3.6336  -2.9606  -0.5705   0.1896   0.2329   1.4141
     2.0838   2.7284   2.7518   3.7384   4.1083   4.1249   4.1558   5.2428

          k =-0.3750 0.3750 0.1250 ( 10902 PWs)   bands (ev):

    -4.5960  -3.6530  -3.6416  -2.9636  -0.5626   0.2035   0.2215   1.4080
     2.0783   2.7302   2.7411   3.7439   4.1142   4.1269   4.1567   5.2409

          k =-0.3750-0.3750 0.3750 ( 10927 PWs)   bands (ev):

    -4.1618  -3.4777  -3.4501  -3.4403  -0.6834  -0.6587  -0.6367   0.1204
     3.7328   3.7558   3.7628   4.4633   4.4716   4.4887   4.9209   4.9573

          k =-0.3750 0.3750-0.3750 ( 10927 PWs)   bands (ev):

    -4.1678  -3.4663  -3.4573  -3.4328  -0.6882  -0.6665  -0.6538   0.1415
     3.7541   3.7615   3.7909   4.4476   4.4675   4.4686   4.9200   4.9437

          k = 0.3750-0.3750-0.3750 ( 10927 PWs)   bands (ev):

    -4.1593  -3.4771  -3.4524  -3.4437  -0.6713  -0.6585  -0.6366   0.1117
     3.7210   3.7505   3.7579   4.4729   4.4751   4.4917   4.9288   4.9547

     highest occupied level (ev):     5.7480

!    total energy              =    -373.81682487 Ry
     Harris-Foulkes estimate   =    -373.81682487 Ry
     estimated scf accuracy    <          1.6E-10 Ry

     total all-electron energy =     -4640.583769 Ry

     The total energy is the sum of the following terms:

     one-electron contribution =      22.32506518 Ry
     hartree contribution      =       4.46291623 Ry
     xc contribution           =     -48.93009009 Ry
     ewald contribution        =     -66.75031242 Ry
     one-center paw contrib.   =    -284.92440378 Ry

     convergence has been achieved in   8 iterations

     Forces acting on atoms (cartesian axes, Ry/au):

     atom    1 type  1   force =    -0.00475640    0.01146591    0.00024841
     atom    2 type  1   force =    -0.00061617   -0.00078361    0.00000343
     atom    3 type  1   force =     0.00032542    0.00148804    0.00000342
     atom    4 type  1   force =     0.00032521   -0.00078395   -0.00000069
     atom    5 type  1   force =    -0.00080904   -0.00202557   -0.00117108
     atom    6 type  1   force =     0.00328962   -0.00376127   -0.00296249
     atom    7 type  1   force =     0.00307636   -0.00359158    0.00270548
     atom    8 type  1   force =    -0.00083502   -0.00200797    0.00117352

     Total force =     0.015292     Total SCF correction =     0.000010


     Computing stress (Cartesian axis) and pressure

          total   stress  (Ry/bohr**3)                   (kbar)     P=    0.15
   0.00000115  -0.00000030  -0.00001347          0.17     -0.04     -1.98
  -0.00000030   0.00000063   0.00000558         -0.04      0.09      0.82
  -0.00001347   0.00000558   0.00000126         -1.98      0.82      0.19


     init_run     :      1.60s CPU      1.62s WALL (       1 calls)
     electrons    :     21.12s CPU     21.24s WALL (       1 calls)
     forces       :      0.44s CPU      0.45s WALL (       1 calls)
     stress       :      1.07s CPU      1.07s WALL (       1 calls)

     Called by init_run:
     wfcinit      :      1.32s CPU      1.34s WALL (       1 calls)
     potinit      :      0.12s CPU      0.12s WALL (       1 calls)

     Called by electrons:
     c_bands      :     16.88s CPU     16.98s WALL (       9 calls)
     sum_band     :      3.27s CPU      3.28s WALL (       9 calls)
     v_of_rho     :      0.26s CPU      0.27s WALL (       9 calls)
     newd         :      0.12s CPU      0.13s WALL (       9 calls)
     PAW_pot      :      0.66s CPU      0.65s WALL (       9 calls)
     mix_rho      :      0.04s CPU      0.03s WALL (       9 calls)

     Called by c_bands:
     init_us_2    :      0.78s CPU      0.79s WALL (     672 calls)
     cegterg      :     15.86s CPU     15.95s WALL (     288 calls)

     Called by sum_band:
     sum_band:bec :      0.00s CPU      0.00s WALL (     288 calls)
     addusdens    :      0.12s CPU      0.13s WALL (       9 calls)

     Called by *egterg:
     h_psi        :     13.84s CPU     13.95s WALL (     992 calls)
     s_psi        :      0.88s CPU      0.87s WALL (     992 calls)
     g_psi        :      0.04s CPU      0.07s WALL (     672 calls)
     cdiaghg      :      0.24s CPU      0.30s WALL (     928 calls)

     Called by h_psi:
     h_psi:pot    :     13.63s CPU     13.71s WALL (     992 calls)
     h_psi:calbec :      0.96s CPU      0.93s WALL (     992 calls)
     vloc_psi     :     11.84s CPU     11.94s WALL (     992 calls)
     add_vuspsi   :      0.82s CPU      0.83s WALL (     992 calls)

     General routines
     calbec       :      1.49s CPU      1.44s WALL (    1440 calls)
     fft          :      0.07s CPU      0.11s WALL (     144 calls)
     fftw         :     11.41s CPU     11.39s WALL (   32484 calls)

     Parallel routines
     fft_scatt_xy :      1.19s CPU      1.18s WALL (   32628 calls)
     fft_scatt_yz :      1.89s CPU      1.88s WALL (   32628 calls)

     PWSCF        :    24.32s CPU        24.48s WALL


   This run was terminated on:  11:48:25  24Oct2021            

=------------------------------------------------------------------------------=
   JOB DONE.
=------------------------------------------------------------------------------=
Note: The following floating-point exceptions are signalling: IEEE_UNDERFLOW_FLAG IEEE_DENORMAL
