
     Program PWSCF v.6.2 (svn rev. 13949:13950) starts on 24Oct2021 at 11:50: 5 

     This program is part of the open-source Quantum ESPRESSO suite
     for quantum simulation of materials; please cite
         "P. Giannozzi et al., J. Phys.:Condens. Matter 21 395502 (2009);
         "P. Giannozzi et al., J. Phys.:Condens. Matter 29 465901 (2017);
          URL http://www.quantum-espresso.org", 
     in publications or presentations arising from this work. More details at
     http://www.quantum-espresso.org/quote

     Parallel version (MPI), running on     4 processors

     MPI processes distributed on     1 nodes
     R & G space division:  proc/nbgrp/npool/nimage =       4
     Reading input from headeradd_supercell-00008.in

     Current dimensions of program PWSCF are:
     Max number of different atomic species (ntypx) = 10
     Max number of k-points (npk) =  40000
     Max angular momentum in pseudopotentials (lmaxx) =  3
     Message from routine iosys:
     minimal I/O required, wf_collect reset to FALSE
               file Si.pbe-n-kjpaw_psl.0.1.UPF: wavefunction(s)  3S renormalized

     Subspace diagonalization in iterative solution of the eigenvalue problem:
     a serial algorithm will be used


     Parallelization info
     --------------------
     sticks:   dense  smooth     PW     G-vecs:    dense   smooth      PW
     Min         593     593    164                21816    21816    3132
     Max         595     595    165                21819    21819    3135
     Sum        2377    2377    657                87271    87271   12533



     bravais-lattice index     =            0
     lattice parameter (alat)  =      10.3296  a.u.
     unit-cell volume          =    1102.1598 (a.u.)^3
     number of atoms/cell      =            8
     number of atomic types    =            1
     number of electrons       =        32.00
     number of Kohn-Sham states=           16
     kinetic-energy cutoff     =      70.0000  Ry
     charge density cutoff     =     280.0000  Ry
     convergence threshold     =      1.0E-09
     mixing beta               =       0.7000
     number of iterations used =            8  plain     mixing
     Exchange-correlation      =  SLA  PW   PBX  PBC ( 1  4  3  4 0 0)

     celldm(1)=  10.329553  celldm(2)=   0.000000  celldm(3)=   0.000000
     celldm(4)=   0.000000  celldm(5)=   0.000000  celldm(6)=   0.000000

     crystal axes: (cart. coord. in units of alat)
               a(1) = (   1.000000   0.000000   0.000000 )  
               a(2) = (   0.000000   1.000000   0.000000 )  
               a(3) = (   0.000000   0.000000   1.000000 )  

     reciprocal axes: (cart. coord. in units 2 pi/alat)
               b(1) = (  1.000000  0.000000  0.000000 )  
               b(2) = (  0.000000  1.000000  0.000000 )  
               b(3) = (  0.000000  0.000000  1.000000 )  


     PseudoPot. # 1 for Si read from file:
     /home/uezono/pseudo/Si.pbe-n-kjpaw_psl.0.1.UPF
     MD5 check sum: 0810ef13ebffcf5dbabd57b297315270
     Pseudo is Projector augmented-wave + core cor, Zval =  4.0
     Generated using "atomic" code by A. Dal Corso  v.5.0.2 svn rev. 9415
     Shape of augmentation charge: PSQ
     Using radial grid of 1141 points,  4 beta functions with: 
                l(1) =   0
                l(2) =   0
                l(3) =   1
                l(4) =   1
     Q(r) pseudized with 0 coefficients 


     atomic species   valence    mass     pseudopotential
        Si             4.00    28.08550     Si( 1.00)

      2 Sym. Ops. (no inversion) found ( 1 have fractional translation)



   Cartesian axes

     site n.     atom                  positions (alat units)
         1           Si  tau(   1) = (   0.8808086   0.8750000   0.8750000  )
         2           Si  tau(   2) = (   0.8750000   0.3750000   0.3750000  )
         3           Si  tau(   3) = (   0.3750000   0.8750000   0.3808086  )
         4           Si  tau(   4) = (   0.3750000   0.3750000   0.8750000  )
         5           Si  tau(   5) = (   0.1250000   0.1250000   0.1250000  )
         6           Si  tau(   6) = (   0.1250000   0.6250000   0.6250000  )
         7           Si  tau(   7) = (   0.6250000   0.1250000   0.6250000  )
         8           Si  tau(   8) = (   0.6250000   0.6250000   0.1250000  )

     number of k points=    20
                       cart. coord. in units 2pi/alat
        k(    1) = (   0.1250000   0.1250000   0.1250000), wk =   0.0625000
        k(    2) = (   0.1250000   0.1250000   0.3750000), wk =   0.1250000
        k(    3) = (   0.1250000   0.3750000   0.3750000), wk =   0.1250000
        k(    4) = (   0.3750000   0.3750000   0.3750000), wk =   0.0625000
        k(    5) = (  -0.1250000   0.1250000  -0.1250000), wk =   0.0625000
        k(    6) = (   0.1250000  -0.1250000  -0.1250000), wk =   0.1250000
        k(    7) = (  -0.1250000   0.1250000  -0.3750000), wk =   0.1250000
        k(    8) = (   0.1250000  -0.1250000  -0.3750000), wk =   0.1250000
        k(    9) = (   0.1250000   0.1250000  -0.3750000), wk =   0.1250000
        k(   10) = (  -0.1250000   0.3750000   0.1250000), wk =   0.1250000
        k(   11) = (  -0.1250000  -0.3750000  -0.1250000), wk =   0.0625000
        k(   12) = (   0.1250000  -0.3750000   0.1250000), wk =   0.0625000
        k(   13) = (  -0.1250000   0.3750000  -0.3750000), wk =   0.1250000
        k(   14) = (   0.1250000  -0.3750000  -0.3750000), wk =   0.1250000
        k(   15) = (   0.3750000   0.1250000  -0.3750000), wk =   0.1250000
        k(   16) = (  -0.3750000  -0.1250000  -0.3750000), wk =   0.0625000
        k(   17) = (   0.3750000  -0.1250000   0.3750000), wk =   0.0625000
        k(   18) = (  -0.3750000   0.3750000   0.1250000), wk =   0.1250000
        k(   19) = (  -0.3750000   0.3750000  -0.3750000), wk =   0.0625000
        k(   20) = (   0.3750000  -0.3750000  -0.3750000), wk =   0.1250000

     Dense  grid:    87271 G-vectors     FFT dimensions: (  60,  60,  60)

     Estimated max dynamical RAM per process >      51.85 MB

     Estimated total dynamical RAM >     207.41 MB

     Initial potential from superposition of free atoms

     starting charge   31.99553, renormalised to   32.00000
     Starting wfc are   32 randomized atomic wfcs
     Checking if some PAW data can be deallocated... 

     total cpu time spent up to now is        1.2 secs

     Self-consistent Calculation

     iteration #  1     ecut=    70.00 Ry     beta= 0.70
     Davidson diagonalization with overlap
     ethr =  1.00E-02,  avg # of iterations =  2.0

     Threshold (ethr) on eigenvalues was too large:
     Diagonalizing with lowered threshold

     Davidson diagonalization with overlap
     ethr =  6.98E-04,  avg # of iterations =  1.0

     total cpu time spent up to now is        4.0 secs

     total energy              =    -373.80700775 Ry
     Harris-Foulkes estimate   =    -373.85909813 Ry
     estimated scf accuracy    <       0.22076781 Ry

     iteration #  2     ecut=    70.00 Ry     beta= 0.70
     Davidson diagonalization with overlap
     ethr =  6.90E-04,  avg # of iterations =  1.0

     total cpu time spent up to now is        5.2 secs

     total energy              =    -373.81493438 Ry
     Harris-Foulkes estimate   =    -373.81547996 Ry
     estimated scf accuracy    <       0.00978850 Ry

     iteration #  3     ecut=    70.00 Ry     beta= 0.70
     Davidson diagonalization with overlap
     ethr =  3.06E-05,  avg # of iterations =  2.2

     total cpu time spent up to now is        6.8 secs

     total energy              =    -373.81602817 Ry
     Harris-Foulkes estimate   =    -373.81609977 Ry
     estimated scf accuracy    <       0.00020871 Ry

     iteration #  4     ecut=    70.00 Ry     beta= 0.70
     Davidson diagonalization with overlap
     ethr =  6.52E-07,  avg # of iterations =  3.2

     total cpu time spent up to now is        8.6 secs

     total energy              =    -373.81613297 Ry
     Harris-Foulkes estimate   =    -373.81613795 Ry
     estimated scf accuracy    <       0.00001201 Ry

     iteration #  5     ecut=    70.00 Ry     beta= 0.70
     Davidson diagonalization with overlap
     ethr =  3.75E-08,  avg # of iterations =  3.2

     total cpu time spent up to now is       10.4 secs

     total energy              =    -373.81613683 Ry
     Harris-Foulkes estimate   =    -373.81613745 Ry
     estimated scf accuracy    <       0.00000124 Ry

     iteration #  6     ecut=    70.00 Ry     beta= 0.70
     Davidson diagonalization with overlap
     ethr =  3.87E-09,  avg # of iterations =  2.6

     total cpu time spent up to now is       12.1 secs

     total energy              =    -373.81613716 Ry
     Harris-Foulkes estimate   =    -373.81613721 Ry
     estimated scf accuracy    <       0.00000006 Ry

     iteration #  7     ecut=    70.00 Ry     beta= 0.70
     Davidson diagonalization with overlap
     ethr =  1.84E-10,  avg # of iterations =  2.5

     total cpu time spent up to now is       13.9 secs

     total energy              =    -373.81613715 Ry
     Harris-Foulkes estimate   =    -373.81613718 Ry
     estimated scf accuracy    <          6.9E-09 Ry

     iteration #  8     ecut=    70.00 Ry     beta= 0.70
     Davidson diagonalization with overlap
     ethr =  2.15E-11,  avg # of iterations =  2.6

     total cpu time spent up to now is       15.6 secs

     End of self-consistent calculation

          k = 0.1250 0.1250 0.1250 ( 10891 PWs)   bands (ev):

    -5.6256  -2.6232  -2.5919  -2.5647  -0.7995  -0.7751  -0.7451   2.6124
     2.6196   2.6404   3.3654   3.3751   3.4048   4.3809   5.7214   5.7655

          k = 0.1250 0.1250 0.3750 ( 10909 PWs)   bands (ev):

    -5.0967  -4.0649  -2.4486  -2.4060  -0.8846  -0.8479   1.0953   2.0047
     2.0207   2.7732   3.1042   3.1277   3.3579   3.8558   4.7320   4.7885

          k = 0.1250 0.3750 0.3750 ( 10902 PWs)   bands (ev):

    -4.5943  -3.6755  -3.6326  -2.9524  -0.5864   0.2118   0.2560   1.3880
     2.0734   2.7202   2.7521   3.7399   4.0697   4.1324   4.1743   5.2697

          k = 0.3750 0.3750 0.3750 ( 10927 PWs)   bands (ev):

    -4.1571  -3.4944  -3.4558  -3.4323  -0.6701  -0.6606  -0.6158   0.0978
     3.7126   3.7186   3.7571   4.4702   4.4774   4.5186   4.9292   4.9678

          k =-0.1250 0.1250-0.1250 ( 10891 PWs)   bands (ev):

    -5.6266  -2.6151  -2.5899  -2.5576  -0.8158  -0.7834  -0.7621   2.6387
     2.6596   2.6675   3.3391   3.3673   3.3799   4.4460   5.6820   5.7283

          k = 0.1250-0.1250-0.1250 ( 10891 PWs)   bands (ev):

    -5.6261  -2.6307  -2.5904  -2.5493  -0.8240  -0.7802  -0.7371   2.6163
     2.6393   2.6629   3.3578   3.3725   3.3856   4.4137   5.6853   5.7636

          k =-0.1250 0.1250-0.3750 ( 10909 PWs)   bands (ev):

    -5.0992  -4.0627  -2.4376  -2.3951  -0.9092  -0.8713   1.0745   2.0375
     2.0525   2.8200   3.0860   3.1083   3.4162   3.8221   4.6949   4.7754

          k = 0.1250-0.1250-0.3750 ( 10909 PWs)   bands (ev):

    -5.0974  -4.0665  -2.4388  -2.3958  -0.9052  -0.8676   1.1014   2.0220
     2.0440   2.7848   3.0928   3.1176   3.3883   3.8236   4.6925   4.8172

          k = 0.1250 0.1250-0.3750 ( 10909 PWs)   bands (ev):

    -5.0984  -4.0615  -2.4473  -2.4045  -0.8887  -0.8525   1.0697   2.0129
     2.0354   2.8052   3.0961   3.1216   3.3884   3.8535   4.7285   4.7527

          k =-0.1250 0.3750 0.1250 ( 10909 PWs)   bands (ev):

    -5.0975  -4.0648  -2.4453  -2.3976  -0.9139  -0.8419   1.0841   2.0163
     2.0400   2.7972   3.0828   3.1282   3.3884   3.8411   4.7074   4.7883

          k =-0.1250-0.3750-0.1250 ( 10909 PWs)   bands (ev):

    -5.0957  -4.0684  -2.4242  -2.4218  -0.8753  -0.8720   1.1109   2.0134
     2.0200   2.7628   3.1080   3.1192   3.3595   3.8427   4.7121   4.8220

          k = 0.1250-0.3750 0.1250 ( 10909 PWs)   bands (ev):

    -5.0992  -4.0612  -2.4214  -2.4198  -0.8819  -0.8819   1.0584   2.0347
     2.0457   2.8299   3.0941   3.1029   3.4178   3.8388   4.7191   4.7364

          k =-0.1250 0.3750-0.3750 ( 10902 PWs)   bands (ev):

    -4.6026  -3.6628  -3.6208  -2.9645  -0.5673   0.1649   0.2091   1.4484
     2.1027   2.7342   2.7666   3.7260   4.0976   4.1315   4.1622   5.2193

          k = 0.1250-0.3750-0.3750 ( 10902 PWs)   bands (ev):

    -4.5967  -3.6752  -3.6326  -2.9413  -0.6143   0.2082   0.2526   1.4074
     2.0922   2.7381   2.7650   3.7212   4.0626   4.1127   4.1717   5.2754

          k = 0.3750 0.1250-0.3750 ( 10902 PWs)   bands (ev):

    -4.5987  -3.6747  -3.6208  -2.9579  -0.5770   0.1673   0.2537   1.4176
     2.0864   2.7203   2.7674   3.7291   4.0965   4.1302   4.1617   5.2450

          k =-0.3750-0.1250-0.3750 ( 10902 PWs)   bands (ev):

    -4.5965  -3.6485  -3.6478  -2.9683  -0.5494   0.2128   0.2148   1.3984
     2.0686   2.7209   2.7330   3.7544   4.1211   4.1307   4.1616   5.2393

          k = 0.3750-0.1250 0.3750 ( 10902 PWs)   bands (ev):

    -4.6015  -3.6481  -3.6473  -2.9465  -0.6055   0.2060   0.2073   1.4393
     2.1063   2.7529   2.7620   3.7144   4.0938   4.1091   4.1542   5.2500

          k =-0.3750 0.3750 0.1250 ( 10902 PWs)   bands (ev):

    -4.6001  -3.6632  -3.6209  -2.9752  -0.5391   0.1683   0.2130   1.4268
     2.0837   2.7227   2.7480   3.7471   4.1155   4.1354   4.1675   5.2144

          k =-0.3750 0.3750-0.3750 ( 10927 PWs)   bands (ev):

    -4.1739  -3.4774  -3.4551  -3.4165  -0.7104  -0.6647  -0.6553   0.1573
     3.7546   3.7918   3.7961   4.4196   4.4608   4.4742   4.9083   4.9493

          k = 0.3750-0.3750-0.3750 ( 10927 PWs)   bands (ev):

    -4.1653  -3.4915  -3.4556  -3.4187  -0.7077  -0.6625  -0.6175   0.1267
     3.7155   3.7552   3.7941   4.4506   4.4727   4.4863   4.9048   4.9742

     highest occupied level (ev):     5.7655

!    total energy              =    -373.81613716 Ry
     Harris-Foulkes estimate   =    -373.81613716 Ry
     estimated scf accuracy    <          4.3E-10 Ry

     total all-electron energy =     -4640.583081 Ry

     The total energy is the sum of the following terms:

     one-electron contribution =      22.32278966 Ry
     hartree contribution      =       4.46392898 Ry
     xc contribution           =     -48.93019973 Ry
     ewald contribution        =     -66.74814575 Ry
     one-center paw contrib.   =    -284.92451031 Ry

     convergence has been achieved in   8 iterations

     Forces acting on atoms (cartesian axes, Ry/au):

     atom    1 type  1   force =    -0.01619868   -0.00001665    0.00110799
     atom    2 type  1   force =    -0.00210562   -0.00000598   -0.00210562
     atom    3 type  1   force =     0.00110799   -0.00001665   -0.01619868
     atom    4 type  1   force =     0.00110783   -0.00001006    0.00110783
     atom    5 type  1   force =     0.00680355    0.00023175    0.00690454
     atom    6 type  1   force =     0.00113715   -0.00587143    0.00113715
     atom    7 type  1   force =     0.00690454    0.00023175    0.00680355
     atom    8 type  1   force =     0.00124324    0.00545727    0.00124324

     Total force =     0.028223     Total SCF correction =     0.000020


     Computing stress (Cartesian axis) and pressure

          total   stress  (Ry/bohr**3)                   (kbar)     P=    0.28
   0.00000151   0.00001905  -0.00000008          0.22      2.80     -0.01
   0.00001905   0.00000277   0.00001905          2.80      0.41      2.80
  -0.00000008   0.00001905   0.00000151         -0.01      2.80      0.22


     init_run     :      1.14s CPU      1.15s WALL (       1 calls)
     electrons    :     14.31s CPU     14.39s WALL (       1 calls)
     forces       :      0.34s CPU      0.34s WALL (       1 calls)
     stress       :      0.78s CPU      0.79s WALL (       1 calls)

     Called by init_run:
     wfcinit      :      0.86s CPU      0.86s WALL (       1 calls)
     potinit      :      0.12s CPU      0.12s WALL (       1 calls)

     Called by electrons:
     c_bands      :     11.02s CPU     11.10s WALL (       9 calls)
     sum_band     :      2.31s CPU      2.31s WALL (       9 calls)
     v_of_rho     :      0.27s CPU      0.27s WALL (       9 calls)
     newd         :      0.12s CPU      0.13s WALL (       9 calls)
     PAW_pot      :      0.66s CPU      0.66s WALL (       9 calls)
     mix_rho      :      0.03s CPU      0.03s WALL (       9 calls)

     Called by c_bands:
     init_us_2    :      0.44s CPU      0.49s WALL (     420 calls)
     cegterg      :     10.40s CPU     10.46s WALL (     180 calls)

     Called by sum_band:
     sum_band:bec :      0.00s CPU      0.00s WALL (     180 calls)
     addusdens    :      0.13s CPU      0.13s WALL (       9 calls)

     Called by *egterg:
     h_psi        :      9.11s CPU      9.10s WALL (     610 calls)
     s_psi        :      0.57s CPU      0.53s WALL (     610 calls)
     g_psi        :      0.05s CPU      0.04s WALL (     410 calls)
     cdiaghg      :      0.18s CPU      0.18s WALL (     570 calls)

     Called by h_psi:
     h_psi:pot    :      9.04s CPU      9.02s WALL (     610 calls)
     h_psi:calbec :      0.60s CPU      0.58s WALL (     610 calls)
     vloc_psi     :      7.98s CPU      8.01s WALL (     610 calls)
     add_vuspsi   :      0.46s CPU      0.43s WALL (     610 calls)

     General routines
     calbec       :      1.00s CPU      0.91s WALL (     890 calls)
     fft          :      0.12s CPU      0.11s WALL (     144 calls)
     fftw         :      7.62s CPU      7.63s WALL (   20178 calls)

     Parallel routines
     fft_scatt_xy :      0.77s CPU      0.75s WALL (   20322 calls)
     fft_scatt_yz :      1.49s CPU      1.53s WALL (   20322 calls)

     PWSCF        :    16.66s CPU        16.76s WALL


   This run was terminated on:  11:50:22  24Oct2021            

=------------------------------------------------------------------------------=
   JOB DONE.
=------------------------------------------------------------------------------=
Note: The following floating-point exceptions are signalling: IEEE_UNDERFLOW_FLAG IEEE_DENORMAL
