
     Program PWSCF v.6.2 (svn rev. 13949:13950) starts on 24Oct2021 at 11:49:40 

     This program is part of the open-source Quantum ESPRESSO suite
     for quantum simulation of materials; please cite
         "P. Giannozzi et al., J. Phys.:Condens. Matter 21 395502 (2009);
         "P. Giannozzi et al., J. Phys.:Condens. Matter 29 465901 (2017);
          URL http://www.quantum-espresso.org", 
     in publications or presentations arising from this work. More details at
     http://www.quantum-espresso.org/quote

     Parallel version (MPI), running on     4 processors

     MPI processes distributed on     1 nodes
     R & G space division:  proc/nbgrp/npool/nimage =       4
     Reading input from headeradd_supercell-00007.in

     Current dimensions of program PWSCF are:
     Max number of different atomic species (ntypx) = 10
     Max number of k-points (npk) =  40000
     Max angular momentum in pseudopotentials (lmaxx) =  3
     Message from routine iosys:
     minimal I/O required, wf_collect reset to FALSE
               file Si.pbe-n-kjpaw_psl.0.1.UPF: wavefunction(s)  3S renormalized

     Subspace diagonalization in iterative solution of the eigenvalue problem:
     a serial algorithm will be used


     Parallelization info
     --------------------
     sticks:   dense  smooth     PW     G-vecs:    dense   smooth      PW
     Min         593     593    164                21816    21816    3132
     Max         595     595    165                21819    21819    3135
     Sum        2377    2377    657                87271    87271   12533



     bravais-lattice index     =            0
     lattice parameter (alat)  =      10.3296  a.u.
     unit-cell volume          =    1102.1598 (a.u.)^3
     number of atoms/cell      =            8
     number of atomic types    =            1
     number of electrons       =        32.00
     number of Kohn-Sham states=           16
     kinetic-energy cutoff     =      70.0000  Ry
     charge density cutoff     =     280.0000  Ry
     convergence threshold     =      1.0E-09
     mixing beta               =       0.7000
     number of iterations used =            8  plain     mixing
     Exchange-correlation      =  SLA  PW   PBX  PBC ( 1  4  3  4 0 0)

     celldm(1)=  10.329553  celldm(2)=   0.000000  celldm(3)=   0.000000
     celldm(4)=   0.000000  celldm(5)=   0.000000  celldm(6)=   0.000000

     crystal axes: (cart. coord. in units of alat)
               a(1) = (   1.000000   0.000000   0.000000 )  
               a(2) = (   0.000000   1.000000   0.000000 )  
               a(3) = (   0.000000   0.000000   1.000000 )  

     reciprocal axes: (cart. coord. in units 2 pi/alat)
               b(1) = (  1.000000  0.000000  0.000000 )  
               b(2) = (  0.000000  1.000000  0.000000 )  
               b(3) = (  0.000000  0.000000  1.000000 )  


     PseudoPot. # 1 for Si read from file:
     /home/uezono/pseudo/Si.pbe-n-kjpaw_psl.0.1.UPF
     MD5 check sum: 0810ef13ebffcf5dbabd57b297315270
     Pseudo is Projector augmented-wave + core cor, Zval =  4.0
     Generated using "atomic" code by A. Dal Corso  v.5.0.2 svn rev. 9415
     Shape of augmentation charge: PSQ
     Using radial grid of 1141 points,  4 beta functions with: 
                l(1) =   0
                l(2) =   0
                l(3) =   1
                l(4) =   1
     Q(r) pseudized with 0 coefficients 


     atomic species   valence    mass     pseudopotential
        Si             4.00    28.08550     Si( 1.00)

     No symmetry found



   Cartesian axes

     site n.     atom                  positions (alat units)
         1           Si  tau(   1) = (   0.8808086   0.8750000   0.8750000  )
         2           Si  tau(   2) = (   0.8750000   0.3750000   0.3750000  )
         3           Si  tau(   3) = (   0.3708927   0.8708927   0.3750000  )
         4           Si  tau(   4) = (   0.3750000   0.3750000   0.8750000  )
         5           Si  tau(   5) = (   0.1250000   0.1250000   0.1250000  )
         6           Si  tau(   6) = (   0.1250000   0.6250000   0.6250000  )
         7           Si  tau(   7) = (   0.6250000   0.1250000   0.6250000  )
         8           Si  tau(   8) = (   0.6250000   0.6250000   0.1250000  )

     number of k points=    32
                       cart. coord. in units 2pi/alat
        k(    1) = (   0.1250000   0.1250000   0.1250000), wk =   0.0625000
        k(    2) = (   0.1250000   0.1250000   0.3750000), wk =   0.0625000
        k(    3) = (   0.1250000   0.3750000   0.3750000), wk =   0.0625000
        k(    4) = (   0.3750000   0.3750000   0.3750000), wk =   0.0625000
        k(    5) = (  -0.1250000  -0.1250000   0.1250000), wk =   0.0625000
        k(    6) = (  -0.1250000   0.1250000  -0.1250000), wk =   0.0625000
        k(    7) = (   0.1250000  -0.1250000  -0.1250000), wk =   0.0625000
        k(    8) = (  -0.1250000  -0.1250000   0.3750000), wk =   0.0625000
        k(    9) = (  -0.1250000   0.1250000  -0.3750000), wk =   0.0625000
        k(   10) = (   0.1250000  -0.1250000  -0.3750000), wk =   0.0625000
        k(   11) = (   0.3750000  -0.1250000   0.1250000), wk =   0.0625000
        k(   12) = (  -0.3750000  -0.1250000  -0.1250000), wk =   0.0625000
        k(   13) = (   0.3750000   0.1250000  -0.1250000), wk =   0.0625000
        k(   14) = (  -0.3750000   0.1250000   0.1250000), wk =   0.0625000
        k(   15) = (  -0.1250000   0.3750000   0.1250000), wk =   0.0625000
        k(   16) = (  -0.1250000  -0.3750000  -0.1250000), wk =   0.0625000
        k(   17) = (   0.1250000   0.3750000  -0.1250000), wk =   0.0625000
        k(   18) = (   0.1250000  -0.3750000   0.1250000), wk =   0.0625000
        k(   19) = (  -0.1250000  -0.3750000   0.3750000), wk =   0.0625000
        k(   20) = (  -0.1250000   0.3750000  -0.3750000), wk =   0.0625000
        k(   21) = (   0.1250000  -0.3750000  -0.3750000), wk =   0.0625000
        k(   22) = (   0.3750000   0.1250000  -0.3750000), wk =   0.0625000
        k(   23) = (  -0.3750000  -0.1250000  -0.3750000), wk =   0.0625000
        k(   24) = (   0.3750000  -0.1250000   0.3750000), wk =   0.0625000
        k(   25) = (  -0.3750000   0.1250000   0.3750000), wk =   0.0625000
        k(   26) = (   0.3750000  -0.3750000   0.1250000), wk =   0.0625000
        k(   27) = (  -0.3750000  -0.3750000  -0.1250000), wk =   0.0625000
        k(   28) = (   0.3750000   0.3750000  -0.1250000), wk =   0.0625000
        k(   29) = (  -0.3750000   0.3750000   0.1250000), wk =   0.0625000
        k(   30) = (  -0.3750000  -0.3750000   0.3750000), wk =   0.0625000
        k(   31) = (  -0.3750000   0.3750000  -0.3750000), wk =   0.0625000
        k(   32) = (   0.3750000  -0.3750000  -0.3750000), wk =   0.0625000

     Dense  grid:    87271 G-vectors     FFT dimensions: (  60,  60,  60)

     Estimated max dynamical RAM per process >      59.84 MB

     Estimated total dynamical RAM >     239.35 MB

     Initial potential from superposition of free atoms

     starting charge   31.99553, renormalised to   32.00000
     Starting wfc are   32 randomized atomic wfcs
     Checking if some PAW data can be deallocated... 

     total cpu time spent up to now is        1.8 secs

     Self-consistent Calculation

     iteration #  1     ecut=    70.00 Ry     beta= 0.70
     Davidson diagonalization with overlap
     ethr =  1.00E-02,  avg # of iterations =  2.0

     Threshold (ethr) on eigenvalues was too large:
     Diagonalizing with lowered threshold

     Davidson diagonalization with overlap
     ethr =  6.98E-04,  avg # of iterations =  1.0

     total cpu time spent up to now is        6.0 secs

     total energy              =    -373.80695166 Ry
     Harris-Foulkes estimate   =    -373.85908102 Ry
     estimated scf accuracy    <       0.22079085 Ry

     iteration #  2     ecut=    70.00 Ry     beta= 0.70
     Davidson diagonalization with overlap
     ethr =  6.90E-04,  avg # of iterations =  1.0

     total cpu time spent up to now is        7.9 secs

     total energy              =    -373.81488456 Ry
     Harris-Foulkes estimate   =    -373.81543128 Ry
     estimated scf accuracy    <       0.00978733 Ry

     iteration #  3     ecut=    70.00 Ry     beta= 0.70
     Davidson diagonalization with overlap
     ethr =  3.06E-05,  avg # of iterations =  2.2

     total cpu time spent up to now is       10.1 secs

     total energy              =    -373.81598066 Ry
     Harris-Foulkes estimate   =    -373.81605293 Ry
     estimated scf accuracy    <       0.00020927 Ry

     iteration #  4     ecut=    70.00 Ry     beta= 0.70
     Davidson diagonalization with overlap
     ethr =  6.54E-07,  avg # of iterations =  3.2

     total cpu time spent up to now is       13.0 secs

     total energy              =    -373.81608565 Ry
     Harris-Foulkes estimate   =    -373.81609092 Ry
     estimated scf accuracy    <       0.00001259 Ry

     iteration #  5     ecut=    70.00 Ry     beta= 0.70
     Davidson diagonalization with overlap
     ethr =  3.93E-08,  avg # of iterations =  3.0

     total cpu time spent up to now is       15.7 secs

     total energy              =    -373.81608949 Ry
     Harris-Foulkes estimate   =    -373.81609013 Ry
     estimated scf accuracy    <       0.00000131 Ry

     iteration #  6     ecut=    70.00 Ry     beta= 0.70
     Davidson diagonalization with overlap
     ethr =  4.08E-09,  avg # of iterations =  2.7

     total cpu time spent up to now is       18.4 secs

     total energy              =    -373.81608985 Ry
     Harris-Foulkes estimate   =    -373.81608990 Ry
     estimated scf accuracy    <       0.00000006 Ry

     iteration #  7     ecut=    70.00 Ry     beta= 0.70
     Davidson diagonalization with overlap
     ethr =  1.86E-10,  avg # of iterations =  2.7

     total cpu time spent up to now is       21.0 secs

     total energy              =    -373.81608984 Ry
     Harris-Foulkes estimate   =    -373.81608987 Ry
     estimated scf accuracy    <          6.7E-09 Ry

     iteration #  8     ecut=    70.00 Ry     beta= 0.70
     Davidson diagonalization with overlap
     ethr =  2.09E-11,  avg # of iterations =  2.6

     total cpu time spent up to now is       23.6 secs

     End of self-consistent calculation

          k = 0.1250 0.1250 0.1250 ( 10891 PWs)   bands (ev):

    -5.6266  -2.6259  -2.5823  -2.5611  -0.8100  -0.7769  -0.7578   2.6254
     2.6410   2.6608   3.3540   3.3678   3.3876   4.4213   5.7002   5.7407

          k = 0.1250 0.1250 0.3750 ( 10909 PWs)   bands (ev):

    -5.0982  -4.0644  -2.4331  -2.4095  -0.8964  -0.8604   1.0782   2.0219
     2.0387   2.8047   3.0892   3.1171   3.3968   3.8404   4.7135   4.7740

          k = 0.1250 0.3750 0.3750 ( 10902 PWs)   bands (ev):

    -4.5987  -3.6797  -3.6199  -2.9513  -0.5932   0.1978   0.2335   1.4180
     2.0946   2.7342   2.7641   3.7265   4.0607   4.1444   4.1589   5.2556

          k = 0.3750 0.3750 0.3750 ( 10927 PWs)   bands (ev):

    -4.1683  -3.4955  -3.4476  -3.4184  -0.6898  -0.6763  -0.6310   0.1339
     3.7214   3.7571   3.8025   4.4419   4.4674   4.4871   4.9191   4.9568

          k =-0.1250-0.1250 0.1250 ( 10891 PWs)   bands (ev):

    -5.6264  -2.6197  -2.5979  -2.5553  -0.8025  -0.7829  -0.7506   2.6178
     2.6367   2.6534   3.3559   3.3758   3.3899   4.4078   5.7084   5.7485

          k =-0.1250 0.1250-0.1250 ( 10891 PWs)   bands (ev):

    -5.6267  -2.6300  -2.5946  -2.5409  -0.8237  -0.7926  -0.7358   2.6297
     2.6422   2.6693   3.3518   3.3649   3.3840   4.4306   5.7009   5.7291

          k = 0.1250-0.1250-0.1250 ( 10891 PWs)   bands (ev):

    -5.6262  -2.6390  -2.5855  -2.5498  -0.8259  -0.7687  -0.7366   2.6094
     2.6372   2.6479   3.3613   3.3762   3.3927   4.3980   5.7204   5.7479

          k =-0.1250-0.1250 0.3750 ( 10909 PWs)   bands (ev):

    -5.0975  -4.0658  -2.4338  -2.4098  -0.8947  -0.8586   1.0890   2.0178
     2.0333   2.7908   3.0947   3.1175   3.3849   3.8412   4.7130   4.7910

          k =-0.1250 0.1250-0.3750 ( 10909 PWs)   bands (ev):

    -5.0987  -4.0633  -2.4387  -2.4030  -0.9006  -0.8587   1.0706   2.0219
     2.0460   2.8143   3.0886   3.1134   3.4041   3.8404   4.7174   4.7596

          k = 0.1250-0.1250-0.3750 ( 10909 PWs)   bands (ev):

    -5.0969  -4.0669  -2.4400  -2.4041  -0.8978  -0.8533   1.0968   2.0103
     2.0341   2.7806   3.0969   3.1200   3.3752   3.8424   4.7144   4.8019

          k = 0.3750-0.1250 0.1250 ( 10909 PWs)   bands (ev):

    -5.0998  -4.0613  -2.4513  -2.3887  -0.8976  -0.8685   1.0771   2.0246
     2.0475   2.8086   3.0939   3.1121   3.4021   3.8304   4.7118   4.7706

          k =-0.3750-0.1250-0.1250 ( 10909 PWs)   bands (ev):

    -5.0996  -4.0607  -2.4548  -2.3914  -0.8916  -0.8622   1.0752   2.0155
     2.0446   2.8039   3.0956   3.1167   3.3947   3.8401   4.7232   4.7619

          k = 0.3750 0.1250-0.1250 ( 10909 PWs)   bands (ev):

    -5.0986  -4.0637  -2.4525  -2.3897  -0.8943  -0.8653   1.0954   2.0134
     2.0422   2.7840   3.0978   3.1189   3.3824   3.8320   4.7097   4.8000

          k =-0.3750 0.1250 0.1250 ( 10909 PWs)   bands (ev):

    -5.0983  -4.0635  -2.4552  -2.3922  -0.8895  -0.8591   1.0941   2.0102
     2.0333   2.7809   3.1033   3.1202   3.3727   3.8412   4.7219   4.7915

          k =-0.1250 0.3750 0.1250 ( 10909 PWs)   bands (ev):

    -5.0976  -4.0651  -2.4372  -2.4117  -0.8777  -0.8645   1.0870   2.0131
     2.0253   2.7879   3.1052   3.1142   3.3758   3.8515   4.7297   4.7758

          k =-0.1250-0.3750-0.1250 ( 10909 PWs)   bands (ev):

    -5.0981  -4.0658  -2.4307  -2.4049  -0.8908  -0.8788   1.0905   2.0280
     2.0389   2.7978   3.0979   3.1064   3.3954   3.8292   4.7008   4.7971

          k = 0.1250 0.3750-0.1250 ( 10909 PWs)   bands (ev):

    -5.0981  -4.0638  -2.4375  -2.4113  -0.8783  -0.8656   1.0789   2.0178
     2.0269   2.7984   3.1047   3.1108   3.3835   3.8509   4.7308   4.7633

          k = 0.1250-0.3750 0.1250 ( 10909 PWs)   bands (ev):

    -5.0986  -4.0650  -2.4305  -2.4038  -0.8918  -0.8809   1.0831   2.0309
     2.0434   2.8070   3.0953   3.1040   3.4045   3.8287   4.7017   4.7846

          k =-0.1250-0.3750 0.3750 ( 10902 PWs)   bands (ev):

    -4.5987  -3.6758  -3.6171  -2.9657  -0.5595   0.1881   0.2229   1.4153
     2.0845   2.7232   2.7527   3.7426   4.0818   4.1446   4.1699   5.2356

          k =-0.1250 0.3750-0.3750 ( 10902 PWs)   bands (ev):

    -4.6004  -3.6756  -3.6171  -2.9579  -0.5796   0.1858   0.2203   1.4301
     2.0970   2.7308   2.7672   3.7282   4.0683   4.1438   4.1646   5.2396

          k = 0.1250-0.3750-0.3750 ( 10902 PWs)   bands (ev):

    -4.5969  -3.6799  -3.6201  -2.9589  -0.5736   0.2008   0.2358   1.4040
     2.0807   2.7204   2.7565   3.7408   4.0647   4.1533   4.1657   5.2521

          k = 0.3750 0.1250-0.3750 ( 10902 PWs)   bands (ev):

    -4.5979  -3.6643  -3.6400  -2.9475  -0.5977   0.2177   0.2324   1.4065
     2.0862   2.7378   2.7548   3.7273   4.0799   4.1140   4.1720   5.2651

          k =-0.3750-0.1250-0.3750 ( 10902 PWs)   bands (ev):

    -4.6013  -3.6564  -3.6311  -2.9669  -0.5562   0.1884   0.2025   1.4287
     2.0880   2.7347   2.7476   3.7378   4.1029   4.1423   4.1591   5.2241

          k = 0.3750-0.1250 0.3750 ( 10902 PWs)   bands (ev):

    -4.6020  -3.6560  -3.6315  -2.9635  -0.5647   0.1878   0.2013   1.4348
     2.0937   2.7395   2.7512   3.7301   4.1031   4.1390   4.1563   5.2256

          k =-0.3750 0.1250 0.3750 ( 10902 PWs)   bands (ev):

    -4.5971  -3.6649  -3.6397  -2.9505  -0.5897   0.2184   0.2340   1.4006
     2.0808   2.7352   2.7481   3.7310   4.0879   4.1172   4.1717   5.2636

          k = 0.3750-0.3750 0.1250 ( 10902 PWs)   bands (ev):

    -4.6011  -3.6794  -3.6156  -2.9513  -0.5912   0.1625   0.2537   1.4284
     2.0961   2.7301   2.7714   3.7210   4.0875   4.1249   4.1616   5.2476

          k =-0.3750-0.3750-0.1250 ( 10902 PWs)   bands (ev):

    -4.6006  -3.6618  -3.6339  -2.9537  -0.5842   0.1878   0.2314   1.4226
     2.0903   2.7333   2.7599   3.7261   4.1002   4.1200   4.1624   5.2460

          k = 0.3750 0.3750-0.1250 ( 10902 PWs)   bands (ev):

    -4.5996  -3.6611  -3.6348  -2.9582  -0.5726   0.1897   0.2325   1.4141
     2.0826   2.7268   2.7537   3.7342   4.1002   4.1317   4.1624   5.2438

          k =-0.3750 0.3750 0.1250 ( 10902 PWs)   bands (ev):

    -4.5986  -3.6796  -3.6158  -2.9622  -0.5631   0.1660   0.2574   1.4080
     2.0773   2.7151   2.7560   3.7409   4.0980   4.1400   4.1642   5.2422

          k =-0.3750-0.3750 0.3750 ( 10927 PWs)   bands (ev):

    -4.1649  -3.4916  -3.4612  -3.4155  -0.6947  -0.6489  -0.6362   0.1216
     3.7085   3.7540   3.7868   4.4480   4.4762   4.4946   4.9251   4.9594

          k =-0.3750 0.3750-0.3750 ( 10927 PWs)   bands (ev):

    -4.1707  -3.4923  -3.4539  -3.4105  -0.7021  -0.6705  -0.6367   0.1424
     3.7353   3.7605   3.8073   4.4401   4.4583   4.4806   4.9230   4.9491

          k = 0.3750-0.3750-0.3750 ( 10927 PWs)   bands (ev):

    -4.1623  -3.4999  -3.4553  -3.4181  -0.6887  -0.6552  -0.6235   0.1127
     3.7018   3.7501   3.7743   4.4610   4.4763   4.4972   4.9338   4.9583

     highest occupied level (ev):     5.7485

!    total energy              =    -373.81608985 Ry
     Harris-Foulkes estimate   =    -373.81608985 Ry
     estimated scf accuracy    <          3.7E-10 Ry

     total all-electron energy =     -4640.583034 Ry

     The total energy is the sum of the following terms:

     one-electron contribution =      22.32167557 Ry
     hartree contribution      =       4.46446803 Ry
     xc contribution           =     -48.93020656 Ry
     ewald contribution        =     -66.74751600 Ry
     one-center paw contrib.   =    -284.92451087 Ry

     convergence has been achieved in   8 iterations

     Forces acting on atoms (cartesian axes, Ry/au):

     atom    1 type  1   force =    -0.01698145    0.00148767   -0.00001243
     atom    2 type  1   force =    -0.00288866   -0.00078488    0.00000562
     atom    3 type  1   force =     0.01257883    0.01147307   -0.00058846
     atom    4 type  1   force =     0.00259484   -0.00078439   -0.00000479
     atom    5 type  1   force =     0.00326853    0.00206942    0.00298249
     atom    6 type  1   force =    -0.00097343   -0.00799087    0.00133020
     atom    7 type  1   force =    -0.00068510   -0.00737642   -0.00103003
     atom    8 type  1   force =     0.00308643    0.00190640   -0.00268261

     Total force =     0.027637     Total SCF correction =     0.000020


     Computing stress (Cartesian axis) and pressure

          total   stress  (Ry/bohr**3)                   (kbar)     P=    0.29
   0.00000081   0.00000073  -0.00001349          0.12      0.11     -1.98
   0.00000073   0.00000223   0.00000557          0.11      0.33      0.82
  -0.00001349   0.00000557   0.00000290         -1.98      0.82      0.43


     init_run     :      1.68s CPU      1.68s WALL (       1 calls)
     electrons    :     21.69s CPU     21.85s WALL (       1 calls)
     forces       :      0.44s CPU      0.44s WALL (       1 calls)
     stress       :      1.10s CPU      1.10s WALL (       1 calls)

     Called by init_run:
     wfcinit      :      1.39s CPU      1.40s WALL (       1 calls)
     potinit      :      0.12s CPU      0.12s WALL (       1 calls)

     Called by electrons:
     c_bands      :     17.38s CPU     17.50s WALL (       9 calls)
     sum_band     :      3.32s CPU      3.36s WALL (       9 calls)
     v_of_rho     :      0.28s CPU      0.27s WALL (       9 calls)
     newd         :      0.13s CPU      0.13s WALL (       9 calls)
     PAW_pot      :      0.66s CPU      0.66s WALL (       9 calls)
     mix_rho      :      0.03s CPU      0.03s WALL (       9 calls)

     Called by c_bands:
     init_us_2    :      0.81s CPU      0.78s WALL (     672 calls)
     cegterg      :     16.36s CPU     16.46s WALL (     288 calls)

     Called by sum_band:
     sum_band:bec :      0.00s CPU      0.00s WALL (     288 calls)
     addusdens    :      0.13s CPU      0.13s WALL (       9 calls)

     Called by *egterg:
     h_psi        :     14.17s CPU     14.31s WALL (     977 calls)
     s_psi        :      0.81s CPU      0.85s WALL (     977 calls)
     g_psi        :      0.05s CPU      0.07s WALL (     657 calls)
     cdiaghg      :      0.26s CPU      0.29s WALL (     913 calls)

     Called by h_psi:
     h_psi:pot    :     14.08s CPU     14.18s WALL (     977 calls)
     h_psi:calbec :      0.90s CPU      0.92s WALL (     977 calls)
     vloc_psi     :     12.50s CPU     12.55s WALL (     977 calls)
     add_vuspsi   :      0.67s CPU      0.70s WALL (     977 calls)

     General routines
     calbec       :      1.40s CPU      1.45s WALL (    1425 calls)
     fft          :      0.09s CPU      0.11s WALL (     144 calls)
     fftw         :     11.87s CPU     11.87s WALL (   32276 calls)

     Parallel routines
     fft_scatt_xy :      1.29s CPU      1.19s WALL (   32420 calls)
     fft_scatt_yz :      2.11s CPU      2.13s WALL (   32420 calls)

     PWSCF        :    24.99s CPU        25.17s WALL


   This run was terminated on:  11:50: 5  24Oct2021            

=------------------------------------------------------------------------------=
   JOB DONE.
=------------------------------------------------------------------------------=
Note: The following floating-point exceptions are signalling: IEEE_UNDERFLOW_FLAG IEEE_DENORMAL
