
     Program PWSCF v.6.2 (svn rev. 13949:13950) starts on 24Oct2021 at 11:47:26 

     This program is part of the open-source Quantum ESPRESSO suite
     for quantum simulation of materials; please cite
         "P. Giannozzi et al., J. Phys.:Condens. Matter 21 395502 (2009);
         "P. Giannozzi et al., J. Phys.:Condens. Matter 29 465901 (2017);
          URL http://www.quantum-espresso.org", 
     in publications or presentations arising from this work. More details at
     http://www.quantum-espresso.org/quote

     Parallel version (MPI), running on     4 processors

     MPI processes distributed on     1 nodes
     R & G space division:  proc/nbgrp/npool/nimage =       4
     Reading input from headeradd_supercell-00001.in

     Current dimensions of program PWSCF are:
     Max number of different atomic species (ntypx) = 10
     Max number of k-points (npk) =  40000
     Max angular momentum in pseudopotentials (lmaxx) =  3
     Message from routine iosys:
     minimal I/O required, wf_collect reset to FALSE
               file Si.pbe-n-kjpaw_psl.0.1.UPF: wavefunction(s)  3S renormalized

     Subspace diagonalization in iterative solution of the eigenvalue problem:
     a serial algorithm will be used


     Parallelization info
     --------------------
     sticks:   dense  smooth     PW     G-vecs:    dense   smooth      PW
     Min         593     593    164                21816    21816    3132
     Max         595     595    165                21819    21819    3135
     Sum        2377    2377    657                87271    87271   12533



     bravais-lattice index     =            0
     lattice parameter (alat)  =      10.3296  a.u.
     unit-cell volume          =    1102.1598 (a.u.)^3
     number of atoms/cell      =            8
     number of atomic types    =            1
     number of electrons       =        32.00
     number of Kohn-Sham states=           16
     kinetic-energy cutoff     =      70.0000  Ry
     charge density cutoff     =     280.0000  Ry
     convergence threshold     =      1.0E-09
     mixing beta               =       0.7000
     number of iterations used =            8  plain     mixing
     Exchange-correlation      =  SLA  PW   PBX  PBC ( 1  4  3  4 0 0)

     celldm(1)=  10.329553  celldm(2)=   0.000000  celldm(3)=   0.000000
     celldm(4)=   0.000000  celldm(5)=   0.000000  celldm(6)=   0.000000

     crystal axes: (cart. coord. in units of alat)
               a(1) = (   1.000000   0.000000   0.000000 )  
               a(2) = (   0.000000   1.000000   0.000000 )  
               a(3) = (   0.000000   0.000000   1.000000 )  

     reciprocal axes: (cart. coord. in units 2 pi/alat)
               b(1) = (  1.000000  0.000000  0.000000 )  
               b(2) = (  0.000000  1.000000  0.000000 )  
               b(3) = (  0.000000  0.000000  1.000000 )  


     PseudoPot. # 1 for Si read from file:
     /home/uezono/pseudo/Si.pbe-n-kjpaw_psl.0.1.UPF
     MD5 check sum: 0810ef13ebffcf5dbabd57b297315270
     Pseudo is Projector augmented-wave + core cor, Zval =  4.0
     Generated using "atomic" code by A. Dal Corso  v.5.0.2 svn rev. 9415
     Shape of augmentation charge: PSQ
     Using radial grid of 1141 points,  4 beta functions with: 
                l(1) =   0
                l(2) =   0
                l(3) =   1
                l(4) =   1
     Q(r) pseudized with 0 coefficients 


     atomic species   valence    mass     pseudopotential
        Si             4.00    28.08550     Si( 1.00)

      4 Sym. Ops. (no inversion) found ( 2 have fractional translation)



   Cartesian axes

     site n.     atom                  positions (alat units)
         1           Si  tau(   1) = (   0.8808086   0.8750000   0.8750000  )
         2           Si  tau(   2) = (   0.8750000   0.3750000   0.3750000  )
         3           Si  tau(   3) = (   0.3750000   0.8750000   0.3750000  )
         4           Si  tau(   4) = (   0.3750000   0.3750000   0.8750000  )
         5           Si  tau(   5) = (   0.1250000   0.1250000   0.1250000  )
         6           Si  tau(   6) = (   0.1250000   0.6250000   0.6250000  )
         7           Si  tau(   7) = (   0.6250000   0.1250000   0.6250000  )
         8           Si  tau(   8) = (   0.6250000   0.6250000   0.1250000  )

     number of k points=    12
                       cart. coord. in units 2pi/alat
        k(    1) = (   0.1250000   0.1250000   0.1250000), wk =   0.1250000
        k(    2) = (   0.1250000   0.1250000   0.3750000), wk =   0.2500000
        k(    3) = (   0.1250000   0.3750000   0.3750000), wk =   0.1250000
        k(    4) = (   0.3750000   0.3750000   0.3750000), wk =   0.1250000
        k(    5) = (   0.1250000   0.1250000  -0.1250000), wk =   0.1250000
        k(    6) = (   0.1250000   0.1250000  -0.3750000), wk =   0.2500000
        k(    7) = (   0.3750000  -0.1250000   0.1250000), wk =   0.1250000
        k(    8) = (  -0.3750000  -0.1250000  -0.1250000), wk =   0.1250000
        k(    9) = (   0.3750000   0.1250000  -0.3750000), wk =   0.2500000
        k(   10) = (  -0.3750000  -0.1250000  -0.3750000), wk =   0.2500000
        k(   11) = (   0.1250000   0.3750000  -0.3750000), wk =   0.1250000
        k(   12) = (   0.3750000   0.3750000  -0.3750000), wk =   0.1250000

     Dense  grid:    87271 G-vectors     FFT dimensions: (  60,  60,  60)

     Estimated max dynamical RAM per process >      46.53 MB

     Estimated total dynamical RAM >     186.12 MB

     Initial potential from superposition of free atoms

     starting charge   31.99553, renormalised to   32.00000
     Starting wfc are   32 randomized atomic wfcs
     Checking if some PAW data can be deallocated... 

     total cpu time spent up to now is        0.9 secs

     Self-consistent Calculation

     iteration #  1     ecut=    70.00 Ry     beta= 0.70
     Davidson diagonalization with overlap
     ethr =  1.00E-02,  avg # of iterations =  2.0

     Threshold (ethr) on eigenvalues was too large:
     Diagonalizing with lowered threshold

     Davidson diagonalization with overlap
     ethr =  6.98E-04,  avg # of iterations =  1.0

     total cpu time spent up to now is        2.6 secs

     total energy              =    -373.80750044 Ry
     Harris-Foulkes estimate   =    -373.85952697 Ry
     estimated scf accuracy    <       0.22078707 Ry

     iteration #  2     ecut=    70.00 Ry     beta= 0.70
     Davidson diagonalization with overlap
     ethr =  6.90E-04,  avg # of iterations =  1.0

     total cpu time spent up to now is        3.4 secs

     total energy              =    -373.81542231 Ry
     Harris-Foulkes estimate   =    -373.81596355 Ry
     estimated scf accuracy    <       0.00978035 Ry

     iteration #  3     ecut=    70.00 Ry     beta= 0.70
     Davidson diagonalization with overlap
     ethr =  3.06E-05,  avg # of iterations =  2.3

     total cpu time spent up to now is        4.3 secs

     total energy              =    -373.81651613 Ry
     Harris-Foulkes estimate   =    -373.81658753 Ry
     estimated scf accuracy    <       0.00020871 Ry

     iteration #  4     ecut=    70.00 Ry     beta= 0.70
     Davidson diagonalization with overlap
     ethr =  6.52E-07,  avg # of iterations =  3.1

     total cpu time spent up to now is        5.4 secs

     total energy              =    -373.81661967 Ry
     Harris-Foulkes estimate   =    -373.81662405 Ry
     estimated scf accuracy    <       0.00001102 Ry

     iteration #  5     ecut=    70.00 Ry     beta= 0.70
     Davidson diagonalization with overlap
     ethr =  3.45E-08,  avg # of iterations =  3.2

     total cpu time spent up to now is        6.6 secs

     total energy              =    -373.81662337 Ry
     Harris-Foulkes estimate   =    -373.81662375 Ry
     estimated scf accuracy    <       0.00000072 Ry

     iteration #  6     ecut=    70.00 Ry     beta= 0.70
     Davidson diagonalization with overlap
     ethr =  2.26E-09,  avg # of iterations =  3.0

     total cpu time spent up to now is        7.7 secs

     total energy              =    -373.81662357 Ry
     Harris-Foulkes estimate   =    -373.81662363 Ry
     estimated scf accuracy    <       0.00000006 Ry

     iteration #  7     ecut=    70.00 Ry     beta= 0.70
     Davidson diagonalization with overlap
     ethr =  1.85E-10,  avg # of iterations =  2.2

     total cpu time spent up to now is        8.7 secs

     total energy              =    -373.81662356 Ry
     Harris-Foulkes estimate   =    -373.81662358 Ry
     estimated scf accuracy    <          5.6E-09 Ry

     iteration #  8     ecut=    70.00 Ry     beta= 0.70
     Davidson diagonalization with overlap
     ethr =  1.75E-11,  avg # of iterations =  3.0

     total cpu time spent up to now is        9.8 secs

     End of self-consistent calculation

          k = 0.1250 0.1250 0.1250 ( 10891 PWs)   bands (ev):

    -5.6252  -2.6200  -2.5781  -2.5753  -0.8063  -0.7654  -0.7588   2.6163
     2.6391   2.6409   3.3670   3.3735   3.3902   4.3970   5.7111   5.7562

          k = 0.1250 0.1250 0.3750 ( 10909 PWs)   bands (ev):

    -5.0959  -4.0658  -2.4337  -2.4100  -0.8939  -0.8578   1.0980   2.0164
     2.0295   2.7796   3.0988   3.1222   3.3726   3.8411   4.7116   4.8023

          k = 0.1250 0.3750 0.3750 ( 10902 PWs)   bands (ev):

    -4.5943  -3.6702  -3.6369  -2.9472  -0.5999   0.2271   0.2376   1.3978
     2.0833   2.7356   2.7524   3.7322   4.0681   4.1200   4.1710   5.2719

          k = 0.3750 0.3750 0.3750 ( 10927 PWs)   bands (ev):

    -4.1599  -3.4856  -3.4444  -3.4434  -0.6828  -0.6551  -0.6287   0.1118
     3.7160   3.7530   3.7593   4.4700   4.4728   4.4964   4.9216   4.9634

          k = 0.1250 0.1250-0.1250 ( 10891 PWs)   bands (ev):

    -5.6258  -2.6043  -2.6010  -2.5595  -0.8011  -0.7958  -0.7545   2.6384
     2.6410   2.6637   3.3529   3.3700   3.3783   4.4296   5.6917   5.7372

          k = 0.1250 0.1250-0.3750 ( 10909 PWs)   bands (ev):

    -5.0977  -4.0622  -2.4326  -2.4086  -0.8980  -0.8620   1.0718   2.0285
     2.0408   2.8133   3.0914   3.1143   3.4018   3.8392   4.7134   4.7611

          k = 0.3750-0.1250 0.1250 ( 10909 PWs)   bands (ev):

    -5.0976  -4.0638  -2.4342  -2.3987  -0.8925  -0.8843   1.0885   2.0322
     2.0468   2.8020   3.0993   3.1048   3.4010   3.8221   4.6948   4.7942

          k =-0.3750-0.1250-0.1250 ( 10909 PWs)   bands (ev):

    -5.0969  -4.0624  -2.4440  -2.4084  -0.8731  -0.8639   1.0830   2.0118
     2.0260   2.7889   3.1101   3.1166   3.3717   3.8539   4.7360   4.7638

          k = 0.3750 0.1250-0.3750 ( 10902 PWs)   bands (ev):

    -4.5990  -3.6606  -3.6340  -2.9526  -0.5908   0.1872   0.2303   1.4285
     2.0969   2.7385   2.7631   3.7234   4.0993   4.1158   4.1553   5.2467

          k =-0.3750-0.1250-0.3750 ( 10902 PWs)   bands (ev):

    -4.5965  -3.6611  -3.6338  -2.9635  -0.5627   0.1906   0.2340   1.4080
     2.0781   2.7237   2.7474   3.7434   4.1105   4.1300   4.1580   5.2414

          k = 0.1250 0.3750-0.3750 ( 10902 PWs)   bands (ev):

    -4.6002  -3.6577  -3.6252  -2.9702  -0.5527   0.1843   0.1937   1.4377
     2.0938   2.7348   2.7512   3.7382   4.1071   4.1344   4.1609   5.2160

          k = 0.3750 0.3750-0.3750 ( 10927 PWs)   bands (ev):

    -4.1683  -3.4670  -3.4649  -3.4248  -0.6961  -0.6700  -0.6426   0.1417
     3.7524   3.7590   3.7941   4.4406   4.4682   4.4746   4.9133   4.9520

     highest occupied level (ev):     5.7562

!    total energy              =    -373.81662356 Ry
     Harris-Foulkes estimate   =    -373.81662356 Ry
     estimated scf accuracy    <          1.9E-10 Ry

     total all-electron energy =     -4640.583568 Ry

     The total energy is the sum of the following terms:

     one-electron contribution =      22.32439760 Ry
     hartree contribution      =       4.46321591 Ry
     xc contribution           =     -48.93012383 Ry
     ewald contribution        =     -66.74967802 Ry
     one-center paw contrib.   =    -284.92443522 Ry

     convergence has been achieved in   8 iterations

     Forces acting on atoms (cartesian axes, Ry/au):

     atom    1 type  1   force =    -0.01619986    0.00000000    0.00000000
     atom    2 type  1   force =    -0.00210569    0.00000000    0.00000000
     atom    3 type  1   force =     0.00110745    0.00000000    0.00000000
     atom    4 type  1   force =     0.00110745    0.00000000    0.00000000
     atom    5 type  1   force =     0.00408085    0.00294226    0.00294226
     atom    6 type  1   force =     0.00408085   -0.00294226   -0.00294226
     atom    7 type  1   force =     0.00396448   -0.00272224    0.00272224
     atom    8 type  1   force =     0.00396448    0.00272224   -0.00272224

     Total force =     0.019958     Total SCF correction =     0.000006


     Computing stress (Cartesian axis) and pressure

          total   stress  (Ry/bohr**3)                   (kbar)     P=    0.19
   0.00000045   0.00000000   0.00000000          0.07      0.00      0.00
   0.00000000   0.00000171   0.00001906          0.00      0.25      2.80
   0.00000000   0.00001906   0.00000171          0.00      2.80      0.25


     init_run     :      0.77s CPU      0.79s WALL (       1 calls)
     electrons    :      8.86s CPU      8.93s WALL (       1 calls)
     forces       :      0.29s CPU      0.29s WALL (       1 calls)
     stress       :      0.56s CPU      0.56s WALL (       1 calls)

     Called by init_run:
     wfcinit      :      0.51s CPU      0.51s WALL (       1 calls)
     potinit      :      0.10s CPU      0.12s WALL (       1 calls)

     Called by electrons:
     c_bands      :      6.47s CPU      6.51s WALL (       9 calls)
     sum_band     :      1.42s CPU      1.42s WALL (       9 calls)
     v_of_rho     :      0.26s CPU      0.27s WALL (       9 calls)
     newd         :      0.11s CPU      0.13s WALL (       9 calls)
     PAW_pot      :      0.66s CPU      0.66s WALL (       9 calls)
     mix_rho      :      0.04s CPU      0.03s WALL (       9 calls)

     Called by c_bands:
     init_us_2    :      0.27s CPU      0.26s WALL (     252 calls)
     cegterg      :      6.08s CPU      6.13s WALL (     108 calls)

     Called by sum_band:
     sum_band:bec :      0.00s CPU      0.00s WALL (     108 calls)
     addusdens    :      0.14s CPU      0.13s WALL (       9 calls)

     Called by *egterg:
     h_psi        :      5.32s CPU      5.33s WALL (     371 calls)
     s_psi        :      0.31s CPU      0.31s WALL (     371 calls)
     g_psi        :      0.01s CPU      0.02s WALL (     251 calls)
     cdiaghg      :      0.09s CPU      0.11s WALL (     347 calls)

     Called by h_psi:
     h_psi:pot    :      5.27s CPU      5.29s WALL (     371 calls)
     h_psi:calbec :      0.30s CPU      0.34s WALL (     371 calls)
     vloc_psi     :      4.68s CPU      4.69s WALL (     371 calls)
     add_vuspsi   :      0.30s CPU      0.25s WALL (     371 calls)

     General routines
     calbec       :      0.49s CPU      0.54s WALL (     539 calls)
     fft          :      0.10s CPU      0.11s WALL (     144 calls)
     fftw         :      4.32s CPU      4.42s WALL (   12116 calls)

     Parallel routines
     fft_scatt_xy :      0.44s CPU      0.46s WALL (   12260 calls)
     fft_scatt_yz :      0.94s CPU      0.87s WALL (   12260 calls)

     PWSCF        :    10.58s CPU        10.66s WALL


   This run was terminated on:  11:47:37  24Oct2021            

=------------------------------------------------------------------------------=
   JOB DONE.
=------------------------------------------------------------------------------=
Note: The following floating-point exceptions are signalling: IEEE_UNDERFLOW_FLAG IEEE_DENORMAL
