
     Program PWSCF v.6.2 (svn rev. 13949:13950) starts on 24Oct2021 at 11:47:37 

     This program is part of the open-source Quantum ESPRESSO suite
     for quantum simulation of materials; please cite
         "P. Giannozzi et al., J. Phys.:Condens. Matter 21 395502 (2009);
         "P. Giannozzi et al., J. Phys.:Condens. Matter 29 465901 (2017);
          URL http://www.quantum-espresso.org", 
     in publications or presentations arising from this work. More details at
     http://www.quantum-espresso.org/quote

     Parallel version (MPI), running on     4 processors

     MPI processes distributed on     1 nodes
     R & G space division:  proc/nbgrp/npool/nimage =       4
     Reading input from headeradd_supercell-00002.in

     Current dimensions of program PWSCF are:
     Max number of different atomic species (ntypx) = 10
     Max number of k-points (npk) =  40000
     Max angular momentum in pseudopotentials (lmaxx) =  3
     Message from routine iosys:
     minimal I/O required, wf_collect reset to FALSE
               file Si.pbe-n-kjpaw_psl.0.1.UPF: wavefunction(s)  3S renormalized

     Subspace diagonalization in iterative solution of the eigenvalue problem:
     a serial algorithm will be used


     Parallelization info
     --------------------
     sticks:   dense  smooth     PW     G-vecs:    dense   smooth      PW
     Min         593     593    164                21816    21816    3132
     Max         595     595    165                21819    21819    3135
     Sum        2377    2377    657                87271    87271   12533



     bravais-lattice index     =            0
     lattice parameter (alat)  =      10.3296  a.u.
     unit-cell volume          =    1102.1598 (a.u.)^3
     number of atoms/cell      =            8
     number of atomic types    =            1
     number of electrons       =        32.00
     number of Kohn-Sham states=           16
     kinetic-energy cutoff     =      70.0000  Ry
     charge density cutoff     =     280.0000  Ry
     convergence threshold     =      1.0E-09
     mixing beta               =       0.7000
     number of iterations used =            8  plain     mixing
     Exchange-correlation      =  SLA  PW   PBX  PBC ( 1  4  3  4 0 0)

     celldm(1)=  10.329553  celldm(2)=   0.000000  celldm(3)=   0.000000
     celldm(4)=   0.000000  celldm(5)=   0.000000  celldm(6)=   0.000000

     crystal axes: (cart. coord. in units of alat)
               a(1) = (   1.000000   0.000000   0.000000 )  
               a(2) = (   0.000000   1.000000   0.000000 )  
               a(3) = (   0.000000   0.000000   1.000000 )  

     reciprocal axes: (cart. coord. in units 2 pi/alat)
               b(1) = (  1.000000  0.000000  0.000000 )  
               b(2) = (  0.000000  1.000000  0.000000 )  
               b(3) = (  0.000000  0.000000  1.000000 )  


     PseudoPot. # 1 for Si read from file:
     /home/uezono/pseudo/Si.pbe-n-kjpaw_psl.0.1.UPF
     MD5 check sum: 0810ef13ebffcf5dbabd57b297315270
     Pseudo is Projector augmented-wave + core cor, Zval =  4.0
     Generated using "atomic" code by A. Dal Corso  v.5.0.2 svn rev. 9415
     Shape of augmentation charge: PSQ
     Using radial grid of 1141 points,  4 beta functions with: 
                l(1) =   0
                l(2) =   0
                l(3) =   1
                l(4) =   1
     Q(r) pseudized with 0 coefficients 


     atomic species   valence    mass     pseudopotential
        Si             4.00    28.08550     Si( 1.00)

     No symmetry found



   Cartesian axes

     site n.     atom                  positions (alat units)
         1           Si  tau(   1) = (   0.8849159   0.8791073   0.8750000  )
         2           Si  tau(   2) = (   0.8750000   0.3750000   0.3750000  )
         3           Si  tau(   3) = (   0.3750000   0.8750000   0.3750000  )
         4           Si  tau(   4) = (   0.3750000   0.3750000   0.8750000  )
         5           Si  tau(   5) = (   0.1250000   0.1250000   0.1250000  )
         6           Si  tau(   6) = (   0.1250000   0.6250000   0.6250000  )
         7           Si  tau(   7) = (   0.6250000   0.1250000   0.6250000  )
         8           Si  tau(   8) = (   0.6250000   0.6250000   0.1250000  )

     number of k points=    32
                       cart. coord. in units 2pi/alat
        k(    1) = (   0.1250000   0.1250000   0.1250000), wk =   0.0625000
        k(    2) = (   0.1250000   0.1250000   0.3750000), wk =   0.0625000
        k(    3) = (   0.1250000   0.3750000   0.3750000), wk =   0.0625000
        k(    4) = (   0.3750000   0.3750000   0.3750000), wk =   0.0625000
        k(    5) = (  -0.1250000  -0.1250000   0.1250000), wk =   0.0625000
        k(    6) = (  -0.1250000   0.1250000  -0.1250000), wk =   0.0625000
        k(    7) = (   0.1250000  -0.1250000  -0.1250000), wk =   0.0625000
        k(    8) = (  -0.1250000  -0.1250000   0.3750000), wk =   0.0625000
        k(    9) = (  -0.1250000   0.1250000  -0.3750000), wk =   0.0625000
        k(   10) = (   0.1250000  -0.1250000  -0.3750000), wk =   0.0625000
        k(   11) = (   0.3750000  -0.1250000   0.1250000), wk =   0.0625000
        k(   12) = (  -0.3750000  -0.1250000  -0.1250000), wk =   0.0625000
        k(   13) = (   0.3750000   0.1250000  -0.1250000), wk =   0.0625000
        k(   14) = (  -0.3750000   0.1250000   0.1250000), wk =   0.0625000
        k(   15) = (  -0.1250000   0.3750000   0.1250000), wk =   0.0625000
        k(   16) = (  -0.1250000  -0.3750000  -0.1250000), wk =   0.0625000
        k(   17) = (   0.1250000   0.3750000  -0.1250000), wk =   0.0625000
        k(   18) = (   0.1250000  -0.3750000   0.1250000), wk =   0.0625000
        k(   19) = (  -0.1250000  -0.3750000   0.3750000), wk =   0.0625000
        k(   20) = (  -0.1250000   0.3750000  -0.3750000), wk =   0.0625000
        k(   21) = (   0.1250000  -0.3750000  -0.3750000), wk =   0.0625000
        k(   22) = (   0.3750000   0.1250000  -0.3750000), wk =   0.0625000
        k(   23) = (  -0.3750000  -0.1250000  -0.3750000), wk =   0.0625000
        k(   24) = (   0.3750000  -0.1250000   0.3750000), wk =   0.0625000
        k(   25) = (  -0.3750000   0.1250000   0.3750000), wk =   0.0625000
        k(   26) = (   0.3750000  -0.3750000   0.1250000), wk =   0.0625000
        k(   27) = (  -0.3750000  -0.3750000  -0.1250000), wk =   0.0625000
        k(   28) = (   0.3750000   0.3750000  -0.1250000), wk =   0.0625000
        k(   29) = (  -0.3750000   0.3750000   0.1250000), wk =   0.0625000
        k(   30) = (  -0.3750000  -0.3750000   0.3750000), wk =   0.0625000
        k(   31) = (  -0.3750000   0.3750000  -0.3750000), wk =   0.0625000
        k(   32) = (   0.3750000  -0.3750000  -0.3750000), wk =   0.0625000

     Dense  grid:    87271 G-vectors     FFT dimensions: (  60,  60,  60)

     Estimated max dynamical RAM per process >      59.84 MB

     Estimated total dynamical RAM >     239.35 MB

     Initial potential from superposition of free atoms

     starting charge   31.99553, renormalised to   32.00000
     Starting wfc are   32 randomized atomic wfcs
     Checking if some PAW data can be deallocated... 

     total cpu time spent up to now is        1.7 secs

     Self-consistent Calculation

     iteration #  1     ecut=    70.00 Ry     beta= 0.70
     Davidson diagonalization with overlap
     ethr =  1.00E-02,  avg # of iterations =  2.0

     Threshold (ethr) on eigenvalues was too large:
     Diagonalizing with lowered threshold

     Davidson diagonalization with overlap
     ethr =  6.99E-04,  avg # of iterations =  1.0

     total cpu time spent up to now is        5.7 secs

     total energy              =    -373.80628472 Ry
     Harris-Foulkes estimate   =    -373.85848899 Ry
     estimated scf accuracy    <       0.22089957 Ry

     iteration #  2     ecut=    70.00 Ry     beta= 0.70
     Davidson diagonalization with overlap
     ethr =  6.90E-04,  avg # of iterations =  1.0

     total cpu time spent up to now is        7.5 secs

     total energy              =    -373.81424299 Ry
     Harris-Foulkes estimate   =    -373.81478982 Ry
     estimated scf accuracy    <       0.00978087 Ry

     iteration #  3     ecut=    70.00 Ry     beta= 0.70
     Davidson diagonalization with overlap
     ethr =  3.06E-05,  avg # of iterations =  2.3

     total cpu time spent up to now is        9.7 secs

     total energy              =    -373.81533786 Ry
     Harris-Foulkes estimate   =    -373.81540937 Ry
     estimated scf accuracy    <       0.00020901 Ry

     iteration #  4     ecut=    70.00 Ry     beta= 0.70
     Davidson diagonalization with overlap
     ethr =  6.53E-07,  avg # of iterations =  3.3

     total cpu time spent up to now is       12.4 secs

     total energy              =    -373.81544564 Ry
     Harris-Foulkes estimate   =    -373.81545111 Ry
     estimated scf accuracy    <       0.00001266 Ry

     iteration #  5     ecut=    70.00 Ry     beta= 0.70
     Davidson diagonalization with overlap
     ethr =  3.96E-08,  avg # of iterations =  3.1

     total cpu time spent up to now is       15.0 secs

     total energy              =    -373.81544957 Ry
     Harris-Foulkes estimate   =    -373.81545030 Ry
     estimated scf accuracy    <       0.00000149 Ry

     iteration #  6     ecut=    70.00 Ry     beta= 0.70
     Davidson diagonalization with overlap
     ethr =  4.65E-09,  avg # of iterations =  2.2

     total cpu time spent up to now is       17.5 secs

     total energy              =    -373.81544996 Ry
     Harris-Foulkes estimate   =    -373.81545001 Ry
     estimated scf accuracy    <       0.00000007 Ry

     iteration #  7     ecut=    70.00 Ry     beta= 0.70
     Davidson diagonalization with overlap
     ethr =  2.03E-10,  avg # of iterations =  2.8

     total cpu time spent up to now is       20.0 secs

     total energy              =    -373.81544996 Ry
     Harris-Foulkes estimate   =    -373.81544998 Ry
     estimated scf accuracy    <          7.4E-09 Ry

     iteration #  8     ecut=    70.00 Ry     beta= 0.70
     Davidson diagonalization with overlap
     ethr =  2.32E-11,  avg # of iterations =  2.6

     total cpu time spent up to now is       22.6 secs

     End of self-consistent calculation

          k = 0.1250 0.1250 0.1250 ( 10891 PWs)   bands (ev):

    -5.6263  -2.6400  -2.5826  -2.5617  -0.8135  -0.7647  -0.7366   2.5927
     2.6297   2.6387   3.3704   3.3760   3.4042   4.3752   5.7139   5.7815

          k = 0.1250 0.1250 0.3750 ( 10909 PWs)   bands (ev):

    -5.0963  -4.0702  -2.4358  -2.4122  -0.8906  -0.8541   1.1152   2.0047
     2.0215   2.7577   3.1012   3.1257   3.3570   3.8429   4.7100   4.8333

          k = 0.1250 0.3750 0.3750 ( 10902 PWs)   bands (ev):

    -4.5934  -3.6890  -3.6292  -2.9436  -0.6066   0.2310   0.2664   1.3751
     2.0740   2.7242   2.7537   3.7376   4.0425   4.1249   4.1847   5.2911

          k = 0.3750 0.3750 0.3750 ( 10927 PWs)   bands (ev):

    -4.1571  -3.5090  -3.4491  -3.4289  -0.6845  -0.6531  -0.6002   0.0917
     3.6705   3.7416   3.7593   4.4752   4.4824   4.5166   4.9194   4.9857

          k =-0.1250-0.1250 0.1250 ( 10891 PWs)   bands (ev):

    -5.6276  -2.6229  -2.5977  -2.5428  -0.8231  -0.7957  -0.7463   2.6393
     2.6479   2.6864   3.3371   3.3667   3.3758   4.4538   5.6681   5.7347

          k =-0.1250 0.1250-0.1250 ( 10891 PWs)   bands (ev):

    -5.6272  -2.6330  -2.6020  -2.5333  -0.8299  -0.7974  -0.7245   2.6247
     2.6399   2.6762   3.3385   3.3693   3.3934   4.4298   5.6666   5.7645

          k = 0.1250-0.1250-0.1250 ( 10891 PWs)   bands (ev):

    -5.6267  -2.6494  -2.5774  -2.5501  -0.8372  -0.7638  -0.7300   2.6024
     2.6389   2.6528   3.3542   3.3726   3.4039   4.3973   5.6866   5.7829

          k =-0.1250-0.1250 0.3750 ( 10909 PWs)   bands (ev):

    -5.1005  -4.0616  -2.4331  -2.4090  -0.9002  -0.8644   1.0521   2.0337
     2.0489   2.8387   3.0821   3.1090   3.4268   3.8383   4.7110   4.7373

          k =-0.1250 0.1250-0.3750 ( 10909 PWs)   bands (ev):

    -5.0993  -4.0641  -2.4501  -2.3923  -0.9235  -0.8368   1.0706   2.0198
     2.0479   2.8130   3.0739   3.1275   3.4034   3.8424   4.7033   4.7748

          k = 0.1250-0.1250-0.3750 ( 10909 PWs)   bands (ev):

    -5.0975  -4.0677  -2.4510  -2.3938  -0.9196  -0.8325   1.0968   2.0071
     2.0372   2.7794   3.0806   3.1361   3.3743   3.8441   4.7065   4.8109

          k = 0.3750-0.1250 0.1250 ( 10909 PWs)   bands (ev):

    -5.0997  -4.0657  -2.4460  -2.3828  -0.9098  -0.8800   1.1001   2.0305
     2.0541   2.7942   3.0923   3.1089   3.4021   3.8093   4.6806   4.8215

          k =-0.3750-0.1250-0.1250 ( 10909 PWs)   bands (ev):

    -5.0984  -4.0632  -2.4628  -2.3998  -0.8750  -0.8462   1.0908   1.9932
     2.0212   2.7707   3.1086   3.1309   3.3530   3.8632   4.7474   4.7729

          k = 0.3750 0.1250-0.1250 ( 10909 PWs)   bands (ev):

    -5.1009  -4.0630  -2.4454  -2.3822  -0.9122  -0.8827   1.0816   2.0357
     2.0653   2.8169   3.0851   3.1050   3.4237   3.8079   4.6829   4.7911

          k =-0.3750 0.1250 0.1250 ( 10909 PWs)   bands (ev):

    -5.0996  -4.0608  -2.4613  -2.3991  -0.8788  -0.8491   1.0723   2.0042
     2.0266   2.7956   3.1052   3.1236   3.3731   3.8620   4.7345   4.7583

          k =-0.1250 0.3750 0.1250 ( 10909 PWs)   bands (ev):

    -5.0973  -4.0691  -2.4439  -2.3954  -0.9133  -0.8501   1.1083   2.0140
     2.0362   2.7732   3.0880   3.1272   3.3749   3.8314   4.6959   4.8308

          k =-0.1250-0.3750-0.1250 ( 10909 PWs)   bands (ev):

    -5.0969  -4.0679  -2.4502  -2.4035  -0.8976  -0.8368   1.1046   1.9969
     2.0243   2.7630   3.0945   3.1362   3.3553   3.8534   4.7227   4.8115

          k = 0.1250 0.3750-0.1250 ( 10909 PWs)   bands (ev):

    -5.1004  -4.0628  -2.4425  -2.3932  -0.9195  -0.8571   1.0637   2.0317
     2.0584   2.8294   3.0750   3.1143   3.4254   3.8282   4.6976   4.7617

          k = 0.1250-0.3750 0.1250 ( 10909 PWs)   bands (ev):

    -5.0998  -4.0620  -2.4478  -2.4012  -0.9050  -0.8443   1.0598   2.0211
     2.0399   2.8214   3.0832   3.1218   3.4042   3.8503   4.7120   4.7554

          k =-0.1250-0.3750 0.3750 ( 10902 PWs)   bands (ev):

    -4.6051  -3.6677  -3.6092  -2.9750  -0.5459   0.1548   0.1899   1.4574
     2.1050   2.7333   2.7629   3.7335   4.0951   4.1231   4.1879   5.1997

          k =-0.1250 0.3750-0.3750 ( 10902 PWs)   bands (ev):

    -4.6034  -3.6679  -3.6094  -2.9823  -0.5268   0.1577   0.1922   1.4436
     2.0913   2.7199   2.7554   3.7462   4.1019   4.1223   4.2030   5.1961

          k = 0.1250-0.3750-0.3750 ( 10902 PWs)   bands (ev):

    -4.5951  -3.6890  -3.6291  -2.9353  -0.6269   0.2288   0.2636   1.3901
     2.0866   2.7317   2.7687   3.7213   4.0303   4.1218   4.1820   5.2951

          k = 0.3750 0.1250-0.3750 ( 10902 PWs)   bands (ev):

    -4.6045  -3.6700  -3.6181  -2.9565  -0.5846   0.1547   0.2291   1.4490
     2.1067   2.7344   2.7764   3.7165   4.0937   4.1318   4.1534   5.2305

          k =-0.3750-0.1250-0.3750 ( 10902 PWs)   bands (ev):

    -4.5961  -3.6785  -3.6273  -2.9589  -0.5701   0.1916   0.2654   1.3861
     2.0672   2.7109   2.7494   3.7459   4.0935   4.1277   4.1754   5.2609

          k = 0.3750-0.1250 0.3750 ( 10902 PWs)   bands (ev):

    -4.6004  -3.6774  -3.6280  -2.9397  -0.6185   0.1859   0.2589   1.4215
     2.0988   2.7333   2.7797   3.7103   4.0655   4.1150   4.1696   5.2702

          k =-0.3750 0.1250 0.3750 ( 10902 PWs)   bands (ev):

    -4.6002  -3.6713  -3.6176  -2.9746  -0.5375   0.1605   0.2354   1.4148
     2.0740   2.7078   2.7519   3.7488   4.1053   4.1471   4.1759   5.2216

          k = 0.3750-0.3750 0.1250 ( 10902 PWs)   bands (ev):

    -4.6017  -3.6802  -3.6161  -2.9522  -0.5910   0.1559   0.2598   1.4286
     2.0956   2.7213   2.7793   3.7206   4.0871   4.1259   4.1616   5.2495

          k =-0.3750-0.3750-0.1250 ( 10902 PWs)   bands (ev):

    -4.5977  -3.6629  -3.6350  -2.9697  -0.5450   0.1932   0.2367   1.3931
     2.0635   2.7119   2.7372   3.7523   4.1091   4.1494   4.1673   5.2385

          k = 0.3750 0.3750-0.1250 ( 10902 PWs)   bands (ev):

    -4.6036  -3.6615  -3.6354  -2.9434  -0.6126   0.1849   0.2277   1.4424
     2.1088   2.7471   2.7753   3.7048   4.0907   4.1072   4.1596   5.2514

          k =-0.3750 0.3750 0.1250 ( 10902 PWs)   bands (ev):

    -4.5992  -3.6813  -3.6154  -2.9632  -0.5629   0.1591   0.2636   1.4082
     2.0767   2.7073   2.7631   3.7405   4.0987   4.1387   4.1653   5.2441

          k =-0.3750-0.3750 0.3750 ( 10927 PWs)   bands (ev):

    -4.1774  -3.4833  -3.4609  -3.4026  -0.7243  -0.6725  -0.6421   0.1635
     3.7501   3.7680   3.8385   4.4111   4.4637   4.4660   4.9016   4.9553

          k =-0.3750 0.3750-0.3750 ( 10927 PWs)   bands (ev):

    -4.1715  -3.4906  -3.4660  -3.4017  -0.7246  -0.6721  -0.6131   0.1427
     3.7373   3.7566   3.8056   4.4201   4.4673   4.4938   4.8952   4.9788

          k = 0.3750-0.3750-0.3750 ( 10927 PWs)   bands (ev):

    -4.1630  -3.5110  -3.4437  -3.4203  -0.7136  -0.6536  -0.6007   0.1129
     3.6967   3.7550   3.7708   4.4550   4.4718   4.5104   4.9017   4.9917

     highest occupied level (ev):     5.7829

!    total energy              =    -373.81544996 Ry
     Harris-Foulkes estimate   =    -373.81544996 Ry
     estimated scf accuracy    <          4.9E-10 Ry

     total all-electron energy =     -4640.582394 Ry

     The total energy is the sum of the following terms:

     one-electron contribution =      22.32051657 Ry
     hartree contribution      =       4.46493075 Ry
     xc contribution           =     -48.93030443 Ry
     ewald contribution        =     -66.74597986 Ry
     one-center paw contrib.   =    -284.92461300 Ry

     convergence has been achieved in   8 iterations

     Forces acting on atoms (cartesian axes, Ry/au):

     atom    1 type  1   force =    -0.02761661   -0.01151746   -0.00145184
     atom    2 type  1   force =    -0.00359435    0.00078462   -0.00002015
     atom    3 type  1   force =     0.00188585   -0.00148724   -0.00002012
     atom    4 type  1   force =     0.00188616    0.00078535    0.00000663
     atom    5 type  1   force =     0.00936587    0.00832192    0.00761918
     atom    6 type  1   force =     0.00480331   -0.00205671   -0.00282740
     atom    7 type  1   force =     0.00490023   -0.00190673    0.00281813
     atom    8 type  1   force =     0.00836954    0.00707625   -0.00612442

     Total force =     0.036939     Total SCF correction =     0.000023


     Computing stress (Cartesian axis) and pressure

          total   stress  (Ry/bohr**3)                   (kbar)     P=    0.42
   0.00000067   0.00000175   0.00001355          0.10      0.26      1.99
   0.00000175   0.00000362   0.00003261          0.26      0.53      4.80
   0.00001355   0.00003261   0.00000426          1.99      4.80      0.63


     init_run     :      1.61s CPU      1.62s WALL (       1 calls)
     electrons    :     20.77s CPU     20.87s WALL (       1 calls)
     forces       :      0.44s CPU      0.45s WALL (       1 calls)
     stress       :      1.08s CPU      1.08s WALL (       1 calls)

     Called by init_run:
     wfcinit      :      1.33s CPU      1.34s WALL (       1 calls)
     potinit      :      0.12s CPU      0.12s WALL (       1 calls)

     Called by electrons:
     c_bands      :     16.58s CPU     16.64s WALL (       9 calls)
     sum_band     :      3.20s CPU      3.24s WALL (       9 calls)
     v_of_rho     :      0.28s CPU      0.27s WALL (       9 calls)
     newd         :      0.12s CPU      0.13s WALL (       9 calls)
     PAW_pot      :      0.66s CPU      0.66s WALL (       9 calls)
     mix_rho      :      0.03s CPU      0.03s WALL (       9 calls)

     Called by c_bands:
     init_us_2    :      0.71s CPU      0.79s WALL (     672 calls)
     cegterg      :     15.58s CPU     15.62s WALL (     288 calls)

     Called by sum_band:
     sum_band:bec :      0.00s CPU      0.00s WALL (     288 calls)
     addusdens    :      0.13s CPU      0.13s WALL (       9 calls)

     Called by *egterg:
     h_psi        :     13.44s CPU     13.47s WALL (     967 calls)
     s_psi        :      0.78s CPU      0.84s WALL (     967 calls)
     g_psi        :      0.04s CPU      0.07s WALL (     647 calls)
     cdiaghg      :      0.32s CPU      0.29s WALL (     903 calls)

     Called by h_psi:
     h_psi:pot    :     13.33s CPU     13.34s WALL (     967 calls)
     h_psi:calbec :      0.91s CPU      0.91s WALL (     967 calls)
     vloc_psi     :     11.67s CPU     11.75s WALL (     967 calls)
     add_vuspsi   :      0.75s CPU      0.68s WALL (     967 calls)

     General routines
     calbec       :      1.39s CPU      1.43s WALL (    1415 calls)
     fft          :      0.10s CPU      0.11s WALL (     144 calls)
     fftw         :     10.95s CPU     11.11s WALL (   32274 calls)

     Parallel routines
     fft_scatt_xy :      1.13s CPU      1.13s WALL (   32418 calls)
     fft_scatt_yz :      1.84s CPU      1.94s WALL (   32418 calls)

     PWSCF        :    24.00s CPU        24.11s WALL


   This run was terminated on:  11:48: 1  24Oct2021            

=------------------------------------------------------------------------------=
   JOB DONE.
=------------------------------------------------------------------------------=
Note: The following floating-point exceptions are signalling: IEEE_UNDERFLOW_FLAG IEEE_DENORMAL
