
     Program PWSCF v.6.2 (svn rev. 13949:13950) starts on 24Oct2021 at 11:51:38 

     This program is part of the open-source Quantum ESPRESSO suite
     for quantum simulation of materials; please cite
         "P. Giannozzi et al., J. Phys.:Condens. Matter 21 395502 (2009);
         "P. Giannozzi et al., J. Phys.:Condens. Matter 29 465901 (2017);
          URL http://www.quantum-espresso.org", 
     in publications or presentations arising from this work. More details at
     http://www.quantum-espresso.org/quote

     Parallel version (MPI), running on     4 processors

     MPI processes distributed on     1 nodes
     R & G space division:  proc/nbgrp/npool/nimage =       4
     Reading input from headeradd_supercell-00013.in

     Current dimensions of program PWSCF are:
     Max number of different atomic species (ntypx) = 10
     Max number of k-points (npk) =  40000
     Max angular momentum in pseudopotentials (lmaxx) =  3
     Message from routine iosys:
     minimal I/O required, wf_collect reset to FALSE
               file Si.pbe-n-kjpaw_psl.0.1.UPF: wavefunction(s)  3S renormalized

     Subspace diagonalization in iterative solution of the eigenvalue problem:
     a serial algorithm will be used


     Parallelization info
     --------------------
     sticks:   dense  smooth     PW     G-vecs:    dense   smooth      PW
     Min         593     593    164                21816    21816    3132
     Max         595     595    165                21819    21819    3135
     Sum        2377    2377    657                87271    87271   12533



     bravais-lattice index     =            0
     lattice parameter (alat)  =      10.3296  a.u.
     unit-cell volume          =    1102.1598 (a.u.)^3
     number of atoms/cell      =            8
     number of atomic types    =            1
     number of electrons       =        32.00
     number of Kohn-Sham states=           16
     kinetic-energy cutoff     =      70.0000  Ry
     charge density cutoff     =     280.0000  Ry
     convergence threshold     =      1.0E-09
     mixing beta               =       0.7000
     number of iterations used =            8  plain     mixing
     Exchange-correlation      =  SLA  PW   PBX  PBC ( 1  4  3  4 0 0)

     celldm(1)=  10.329553  celldm(2)=   0.000000  celldm(3)=   0.000000
     celldm(4)=   0.000000  celldm(5)=   0.000000  celldm(6)=   0.000000

     crystal axes: (cart. coord. in units of alat)
               a(1) = (   1.000000   0.000000   0.000000 )  
               a(2) = (   0.000000   1.000000   0.000000 )  
               a(3) = (   0.000000   0.000000   1.000000 )  

     reciprocal axes: (cart. coord. in units 2 pi/alat)
               b(1) = (  1.000000  0.000000  0.000000 )  
               b(2) = (  0.000000  1.000000  0.000000 )  
               b(3) = (  0.000000  0.000000  1.000000 )  


     PseudoPot. # 1 for Si read from file:
     /home/uezono/pseudo/Si.pbe-n-kjpaw_psl.0.1.UPF
     MD5 check sum: 0810ef13ebffcf5dbabd57b297315270
     Pseudo is Projector augmented-wave + core cor, Zval =  4.0
     Generated using "atomic" code by A. Dal Corso  v.5.0.2 svn rev. 9415
     Shape of augmentation charge: PSQ
     Using radial grid of 1141 points,  4 beta functions with: 
                l(1) =   0
                l(2) =   0
                l(3) =   1
                l(4) =   1
     Q(r) pseudized with 0 coefficients 


     atomic species   valence    mass     pseudopotential
        Si             4.00    28.08550     Si( 1.00)

      2 Sym. Ops. (no inversion) found ( 1 have fractional translation)



   Cartesian axes

     site n.     atom                  positions (alat units)
         1           Si  tau(   1) = (   0.8808086   0.8750000   0.8750000  )
         2           Si  tau(   2) = (   0.8750000   0.3750000   0.3750000  )
         3           Si  tau(   3) = (   0.3750000   0.8750000   0.3750000  )
         4           Si  tau(   4) = (   0.3750000   0.3750000   0.8750000  )
         5           Si  tau(   5) = (   0.1250000   0.1250000   0.1250000  )
         6           Si  tau(   6) = (   0.1250000   0.6250000   0.6250000  )
         7           Si  tau(   7) = (   0.6250000   0.1308086   0.6250000  )
         8           Si  tau(   8) = (   0.6250000   0.6250000   0.1250000  )

     number of k points=    20
                       cart. coord. in units 2pi/alat
        k(    1) = (   0.1250000   0.1250000   0.1250000), wk =   0.1250000
        k(    2) = (   0.1250000   0.1250000   0.3750000), wk =   0.1250000
        k(    3) = (   0.1250000   0.3750000   0.3750000), wk =   0.1250000
        k(    4) = (   0.3750000   0.3750000   0.3750000), wk =   0.1250000
        k(    5) = (  -0.1250000   0.1250000  -0.1250000), wk =   0.0625000
        k(    6) = (   0.1250000  -0.1250000  -0.1250000), wk =   0.0625000
        k(    7) = (  -0.1250000   0.1250000  -0.3750000), wk =   0.0625000
        k(    8) = (   0.1250000  -0.1250000  -0.3750000), wk =   0.0625000
        k(    9) = (   0.3750000  -0.1250000   0.1250000), wk =   0.1250000
        k(   10) = (  -0.3750000  -0.1250000  -0.1250000), wk =   0.1250000
        k(   11) = (   0.3750000   0.1250000  -0.1250000), wk =   0.1250000
        k(   12) = (  -0.3750000   0.1250000   0.1250000), wk =   0.1250000
        k(   13) = (  -0.1250000   0.3750000  -0.3750000), wk =   0.1250000
        k(   14) = (   0.1250000  -0.3750000  -0.3750000), wk =   0.1250000
        k(   15) = (  -0.1250000  -0.3750000   0.3750000), wk =   0.1250000
        k(   16) = (   0.3750000  -0.3750000   0.1250000), wk =   0.0625000
        k(   17) = (  -0.3750000  -0.3750000  -0.1250000), wk =   0.1250000
        k(   18) = (  -0.3750000   0.3750000   0.1250000), wk =   0.0625000
        k(   19) = (  -0.3750000   0.3750000  -0.3750000), wk =   0.0625000
        k(   20) = (   0.3750000  -0.3750000  -0.3750000), wk =   0.0625000

     Dense  grid:    87271 G-vectors     FFT dimensions: (  60,  60,  60)

     Estimated max dynamical RAM per process >      51.85 MB

     Estimated total dynamical RAM >     207.41 MB

     Initial potential from superposition of free atoms

     starting charge   31.99553, renormalised to   32.00000
     Starting wfc are   32 randomized atomic wfcs
     Checking if some PAW data can be deallocated... 

     total cpu time spent up to now is        1.3 secs

     Self-consistent Calculation

     iteration #  1     ecut=    70.00 Ry     beta= 0.70
     Davidson diagonalization with overlap
     ethr =  1.00E-02,  avg # of iterations =  2.0

     Threshold (ethr) on eigenvalues was too large:
     Diagonalizing with lowered threshold

     Davidson diagonalization with overlap
     ethr =  6.98E-04,  avg # of iterations =  1.0

     total cpu time spent up to now is        4.2 secs

     total energy              =    -373.80683233 Ry
     Harris-Foulkes estimate   =    -373.85894262 Ry
     estimated scf accuracy    <       0.22083649 Ry

     iteration #  2     ecut=    70.00 Ry     beta= 0.70
     Davidson diagonalization with overlap
     ethr =  6.90E-04,  avg # of iterations =  1.0

     total cpu time spent up to now is        5.7 secs

     total energy              =    -373.81477571 Ry
     Harris-Foulkes estimate   =    -373.81531798 Ry
     estimated scf accuracy    <       0.00978742 Ry

     iteration #  3     ecut=    70.00 Ry     beta= 0.70
     Davidson diagonalization with overlap
     ethr =  3.06E-05,  avg # of iterations =  2.3

     total cpu time spent up to now is        7.3 secs

     total energy              =    -373.81587172 Ry
     Harris-Foulkes estimate   =    -373.81594371 Ry
     estimated scf accuracy    <       0.00020890 Ry

     iteration #  4     ecut=    70.00 Ry     beta= 0.70
     Davidson diagonalization with overlap
     ethr =  6.53E-07,  avg # of iterations =  3.2

     total cpu time spent up to now is        9.3 secs

     total energy              =    -373.81597603 Ry
     Harris-Foulkes estimate   =    -373.81598104 Ry
     estimated scf accuracy    <       0.00001207 Ry

     iteration #  5     ecut=    70.00 Ry     beta= 0.70
     Davidson diagonalization with overlap
     ethr =  3.77E-08,  avg # of iterations =  3.1

     total cpu time spent up to now is       11.1 secs

     total energy              =    -373.81597987 Ry
     Harris-Foulkes estimate   =    -373.81598045 Ry
     estimated scf accuracy    <       0.00000116 Ry

     iteration #  6     ecut=    70.00 Ry     beta= 0.70
     Davidson diagonalization with overlap
     ethr =  3.62E-09,  avg # of iterations =  2.7

     total cpu time spent up to now is       12.9 secs

     total energy              =    -373.81598019 Ry
     Harris-Foulkes estimate   =    -373.81598024 Ry
     estimated scf accuracy    <       0.00000006 Ry

     iteration #  7     ecut=    70.00 Ry     beta= 0.70
     Davidson diagonalization with overlap
     ethr =  1.94E-10,  avg # of iterations =  2.4

     total cpu time spent up to now is       14.6 secs

     total energy              =    -373.81598018 Ry
     Harris-Foulkes estimate   =    -373.81598020 Ry
     estimated scf accuracy    <          7.6E-09 Ry

     iteration #  8     ecut=    70.00 Ry     beta= 0.70
     Davidson diagonalization with overlap
     ethr =  2.36E-11,  avg # of iterations =  2.5

     total cpu time spent up to now is       16.5 secs

     End of self-consistent calculation

          k = 0.1250 0.1250 0.1250 ( 10891 PWs)   bands (ev):

    -5.6263  -2.6311  -2.5903  -2.5504  -0.8239  -0.7804  -0.7367   2.6156
     2.6400   2.6625   3.3533   3.3677   3.3945   4.4135   5.6855   5.7636

          k = 0.1250 0.1250 0.3750 ( 10909 PWs)   bands (ev):

    -5.0977  -4.0650  -2.4459  -2.3983  -0.9137  -0.8419   1.0840   2.0164
     2.0402   2.7962   3.0823   3.1289   3.3883   3.8414   4.7076   4.7882

          k = 0.1250 0.3750 0.3750 ( 10902 PWs)   bands (ev):

    -4.5970  -3.6755  -3.6329  -2.9417  -0.6143   0.2079   0.2524   1.4078
     2.0924   2.7380   2.7646   3.7211   4.0629   4.1130   4.1709   5.2752

          k = 0.3750 0.3750 0.3750 ( 10927 PWs)   bands (ev):

    -4.1657  -3.4920  -3.4551  -3.4196  -0.7076  -0.6630  -0.6176   0.1273
     3.7196   3.7527   3.7914   4.4427   4.4694   4.4974   4.9041   4.9749

          k =-0.1250 0.1250-0.1250 ( 10891 PWs)   bands (ev):

    -5.6269  -2.6179  -2.6032  -2.5422  -0.8202  -0.8019  -0.7396   2.6380
     2.6443   2.6826   3.3465   3.3667   3.3722   4.4465   5.6825   5.7279

          k = 0.1250-0.1250-0.1250 ( 10891 PWs)   bands (ev):

    -5.6258  -2.6389  -2.5782  -2.5634  -0.8220  -0.7593  -0.7388   2.6017
     2.6291   2.6411   3.3646   3.3757   3.4040   4.3811   5.7209   5.7659

          k =-0.1250 0.1250-0.3750 ( 10909 PWs)   bands (ev):

    -5.0994  -4.0614  -2.4357  -2.4068  -0.8975  -0.8657   1.0582   2.0297
     2.0493   2.8304   3.0879   3.1089   3.4184   3.8382   4.7191   4.7368

          k = 0.1250-0.1250-0.3750 ( 10909 PWs)   bands (ev):

    -5.0959  -4.0686  -2.4382  -2.4091  -0.8915  -0.8551   1.1101   2.0075
     2.0261   2.7628   3.1029   3.1236   3.3597   3.8425   4.7118   4.8226

          k = 0.3750-0.1250 0.1250 ( 10909 PWs)   bands (ev):

    -5.0994  -4.0632  -2.4376  -2.3952  -0.9092  -0.8721   1.0752   2.0335
     2.0559   2.8187   3.0844   3.1098   3.4175   3.8217   4.6950   4.7753

          k =-0.3750-0.1250-0.1250 ( 10909 PWs)   bands (ev):

    -5.0987  -4.0619  -2.4474  -2.4050  -0.8892  -0.8525   1.0697   2.0129
     2.0354   2.8052   3.0956   3.1213   3.3884   3.8536   4.7277   4.7534

          k = 0.3750 0.1250-0.1250 ( 10909 PWs)   bands (ev):

    -5.0976  -4.0668  -2.4384  -2.3968  -0.9055  -0.8675   1.1011   2.0247
     2.0409   2.7863   3.0937   3.1163   3.3872   3.8236   4.6923   4.8173

          k =-0.3750 0.1250 0.1250 ( 10909 PWs)   bands (ev):

    -5.0969  -4.0655  -2.4482  -2.4066  -0.8856  -0.8478   1.0960   2.0046
     2.0205   2.7727   3.1042   3.1275   3.3579   3.8555   4.7319   4.7886

          k =-0.1250 0.3750-0.3750 ( 10902 PWs)   bands (ev):

    -4.6028  -3.6629  -3.6214  -2.9648  -0.5673   0.1651   0.2093   1.4472
     2.1027   2.7374   2.7634   3.7257   4.0992   4.1352   4.1570   5.2194

          k = 0.1250-0.3750-0.3750 ( 10902 PWs)   bands (ev):

    -4.5945  -3.6760  -3.6328  -2.9528  -0.5863   0.2117   0.2559   1.3880
     2.0732   2.7202   2.7517   3.7409   4.0689   4.1329   4.1732   5.2698

          k =-0.1250-0.3750 0.3750 ( 10902 PWs)   bands (ev):

    -4.6004  -3.6634  -3.6214  -2.9755  -0.5395   0.1686   0.2128   1.4272
     2.0832   2.7203   2.7509   3.7459   4.1044   4.1397   4.1747   5.2141

          k = 0.3750-0.3750 0.1250 ( 10902 PWs)   bands (ev):

    -4.6016  -3.6743  -3.6216  -2.9467  -0.6056   0.1694   0.2440   1.4385
     2.1056   2.7395   2.7763   3.7130   4.0852   4.1149   4.1579   5.2500

          k =-0.3750-0.3750-0.1250 ( 10902 PWs)   bands (ev):

    -4.5992  -3.6750  -3.6212  -2.9577  -0.5775   0.1673   0.2530   1.4185
     2.0865   2.7188   2.7674   3.7308   4.0966   4.1291   4.1612   5.2456

          k =-0.3750 0.3750 0.1250 ( 10902 PWs)   bands (ev):

    -4.5967  -3.6749  -3.6218  -2.9685  -0.5498   0.1763   0.2515   1.3982
     2.0683   2.7091   2.7452   3.7501   4.1086   4.1447   4.1637   5.2391

          k =-0.3750 0.3750-0.3750 ( 10927 PWs)   bands (ev):

    -4.1741  -3.4780  -3.4595  -3.4127  -0.7138  -0.6681  -0.6481   0.1568
     3.7537   3.7610   3.8278   4.4286   4.4574   4.4662   4.9094   4.9496

          k = 0.3750-0.3750-0.3750 ( 10927 PWs)   bands (ev):

    -4.1572  -3.4987  -3.4523  -3.4327  -0.6774  -0.6570  -0.6119   0.0977
     3.6975   3.7342   3.7560   4.4701   4.4792   4.5152   4.9271   4.9713

     highest occupied level (ev):     5.7659

!    total energy              =    -373.81598018 Ry
     Harris-Foulkes estimate   =    -373.81598018 Ry
     estimated scf accuracy    <          3.6E-10 Ry

     total all-electron energy =     -4640.582924 Ry

     The total energy is the sum of the following terms:

     one-electron contribution =      22.32148305 Ry
     hartree contribution      =       4.46454906 Ry
     xc contribution           =     -48.93038259 Ry
     ewald contribution        =     -66.74706003 Ry
     one-center paw contrib.   =    -284.92456967 Ry

     convergence has been achieved in   8 iterations

     Forces acting on atoms (cartesian axes, Ry/au):

     atom    1 type  1   force =    -0.01871025    0.00374661   -0.00243497
     atom    2 type  1   force =     0.00083763    0.00408571   -0.00293717
     atom    3 type  1   force =     0.00382822    0.00396501    0.00273406
     atom    4 type  1   force =    -0.00183403    0.00408108    0.00294757
     atom    5 type  1   force =     0.00408571    0.00083763    0.00293717
     atom    6 type  1   force =     0.00408108   -0.00183403   -0.00294757
     atom    7 type  1   force =     0.00374661   -0.01871025    0.00243497
     atom    8 type  1   force =     0.00396501    0.00382822   -0.00273406

     Total force =     0.030418     Total SCF correction =     0.000018


     Computing stress (Cartesian axis) and pressure

          total   stress  (Ry/bohr**3)                   (kbar)     P=    0.35
   0.00000188  -0.00000033  -0.00001852          0.28     -0.05     -2.72
  -0.00000033   0.00000188   0.00001852         -0.05      0.28      2.72
  -0.00001852   0.00001852   0.00000341         -2.72      2.72      0.50


     init_run     :      1.15s CPU      1.17s WALL (       1 calls)
     electrons    :     15.18s CPU     15.25s WALL (       1 calls)
     forces       :      0.35s CPU      0.35s WALL (       1 calls)
     stress       :      0.78s CPU      0.79s WALL (       1 calls)

     Called by init_run:
     wfcinit      :      0.88s CPU      0.88s WALL (       1 calls)
     potinit      :      0.12s CPU      0.12s WALL (       1 calls)

     Called by electrons:
     c_bands      :     11.58s CPU     11.63s WALL (       9 calls)
     sum_band     :      2.58s CPU      2.59s WALL (       9 calls)
     v_of_rho     :      0.29s CPU      0.29s WALL (       9 calls)
     newd         :      0.14s CPU      0.14s WALL (       9 calls)
     PAW_pot      :      0.68s CPU      0.69s WALL (       9 calls)
     mix_rho      :      0.03s CPU      0.03s WALL (       9 calls)

     Called by c_bands:
     init_us_2    :      0.46s CPU      0.50s WALL (     420 calls)
     cegterg      :     10.90s CPU     10.96s WALL (     180 calls)

     Called by sum_band:
     sum_band:bec :      0.00s CPU      0.00s WALL (     180 calls)
     addusdens    :      0.14s CPU      0.14s WALL (       9 calls)

     Called by *egterg:
     h_psi        :      9.65s CPU      9.70s WALL (     605 calls)
     s_psi        :      0.51s CPU      0.56s WALL (     605 calls)
     g_psi        :      0.05s CPU      0.04s WALL (     405 calls)
     cdiaghg      :      0.18s CPU      0.18s WALL (     565 calls)

     Called by h_psi:
     h_psi:pot    :      9.50s CPU      9.55s WALL (     605 calls)
     h_psi:calbec :      0.52s CPU      0.58s WALL (     605 calls)
     vloc_psi     :      8.40s CPU      8.42s WALL (     605 calls)
     add_vuspsi   :      0.57s CPU      0.54s WALL (     605 calls)

     General routines
     calbec       :      0.93s CPU      0.94s WALL (     885 calls)
     fft          :      0.08s CPU      0.12s WALL (     144 calls)
     fftw         :      7.97s CPU      8.01s WALL (   20164 calls)

     Parallel routines
     fft_scatt_xy :      0.85s CPU      0.78s WALL (   20308 calls)
     fft_scatt_yz :      1.38s CPU      1.50s WALL (   20308 calls)

     PWSCF        :    17.56s CPU        17.66s WALL


   This run was terminated on:  11:51:56  24Oct2021            

=------------------------------------------------------------------------------=
   JOB DONE.
=------------------------------------------------------------------------------=
Note: The following floating-point exceptions are signalling: IEEE_UNDERFLOW_FLAG IEEE_DENORMAL
