
     Program PWSCF v.6.2 (svn rev. 13949:13950) starts on 24Oct2021 at 11:50:47 

     This program is part of the open-source Quantum ESPRESSO suite
     for quantum simulation of materials; please cite
         "P. Giannozzi et al., J. Phys.:Condens. Matter 21 395502 (2009);
         "P. Giannozzi et al., J. Phys.:Condens. Matter 29 465901 (2017);
          URL http://www.quantum-espresso.org", 
     in publications or presentations arising from this work. More details at
     http://www.quantum-espresso.org/quote

     Parallel version (MPI), running on     4 processors

     MPI processes distributed on     1 nodes
     R & G space division:  proc/nbgrp/npool/nimage =       4
     Reading input from headeradd_supercell-00010.in

     Current dimensions of program PWSCF are:
     Max number of different atomic species (ntypx) = 10
     Max number of k-points (npk) =  40000
     Max angular momentum in pseudopotentials (lmaxx) =  3
     Message from routine iosys:
     minimal I/O required, wf_collect reset to FALSE
               file Si.pbe-n-kjpaw_psl.0.1.UPF: wavefunction(s)  3S renormalized

     Subspace diagonalization in iterative solution of the eigenvalue problem:
     a serial algorithm will be used


     Parallelization info
     --------------------
     sticks:   dense  smooth     PW     G-vecs:    dense   smooth      PW
     Min         593     593    164                21816    21816    3132
     Max         595     595    165                21819    21819    3135
     Sum        2377    2377    657                87271    87271   12533



     bravais-lattice index     =            0
     lattice parameter (alat)  =      10.3296  a.u.
     unit-cell volume          =    1102.1598 (a.u.)^3
     number of atoms/cell      =            8
     number of atomic types    =            1
     number of electrons       =        32.00
     number of Kohn-Sham states=           16
     kinetic-energy cutoff     =      70.0000  Ry
     charge density cutoff     =     280.0000  Ry
     convergence threshold     =      1.0E-09
     mixing beta               =       0.7000
     number of iterations used =            8  plain     mixing
     Exchange-correlation      =  SLA  PW   PBX  PBC ( 1  4  3  4 0 0)

     celldm(1)=  10.329553  celldm(2)=   0.000000  celldm(3)=   0.000000
     celldm(4)=   0.000000  celldm(5)=   0.000000  celldm(6)=   0.000000

     crystal axes: (cart. coord. in units of alat)
               a(1) = (   1.000000   0.000000   0.000000 )  
               a(2) = (   0.000000   1.000000   0.000000 )  
               a(3) = (   0.000000   0.000000   1.000000 )  

     reciprocal axes: (cart. coord. in units 2 pi/alat)
               b(1) = (  1.000000  0.000000  0.000000 )  
               b(2) = (  0.000000  1.000000  0.000000 )  
               b(3) = (  0.000000  0.000000  1.000000 )  


     PseudoPot. # 1 for Si read from file:
     /home/uezono/pseudo/Si.pbe-n-kjpaw_psl.0.1.UPF
     MD5 check sum: 0810ef13ebffcf5dbabd57b297315270
     Pseudo is Projector augmented-wave + core cor, Zval =  4.0
     Generated using "atomic" code by A. Dal Corso  v.5.0.2 svn rev. 9415
     Shape of augmentation charge: PSQ
     Using radial grid of 1141 points,  4 beta functions with: 
                l(1) =   0
                l(2) =   0
                l(3) =   1
                l(4) =   1
     Q(r) pseudized with 0 coefficients 


     atomic species   valence    mass     pseudopotential
        Si             4.00    28.08550     Si( 1.00)

      2 Sym. Ops. (no inversion) found



   Cartesian axes

     site n.     atom                  positions (alat units)
         1           Si  tau(   1) = (   0.8808086   0.8750000   0.8750000  )
         2           Si  tau(   2) = (   0.8750000   0.3750000   0.3750000  )
         3           Si  tau(   3) = (   0.3750000   0.8750000   0.3750000  )
         4           Si  tau(   4) = (   0.3750000   0.3750000   0.8750000  )
         5           Si  tau(   5) = (   0.1250000   0.1191914   0.1250000  )
         6           Si  tau(   6) = (   0.1250000   0.6250000   0.6250000  )
         7           Si  tau(   7) = (   0.6250000   0.1250000   0.6250000  )
         8           Si  tau(   8) = (   0.6250000   0.6250000   0.1250000  )

     number of k points=    20
                       cart. coord. in units 2pi/alat
        k(    1) = (   0.1250000   0.1250000   0.1250000), wk =   0.0625000
        k(    2) = (   0.1250000   0.1250000   0.3750000), wk =   0.0625000
        k(    3) = (   0.1250000   0.3750000   0.3750000), wk =   0.1250000
        k(    4) = (   0.3750000   0.3750000   0.3750000), wk =   0.0625000
        k(    5) = (  -0.1250000   0.1250000  -0.1250000), wk =   0.1250000
        k(    6) = (   0.1250000   0.1250000  -0.1250000), wk =   0.0625000
        k(    7) = (  -0.1250000   0.1250000  -0.3750000), wk =   0.1250000
        k(    8) = (   0.1250000   0.1250000  -0.3750000), wk =   0.0625000
        k(    9) = (   0.3750000  -0.1250000   0.1250000), wk =   0.1250000
        k(   10) = (  -0.3750000  -0.1250000  -0.1250000), wk =   0.1250000
        k(   11) = (   0.3750000   0.1250000  -0.1250000), wk =   0.1250000
        k(   12) = (  -0.3750000   0.1250000   0.1250000), wk =   0.1250000
        k(   13) = (  -0.1250000   0.3750000  -0.3750000), wk =   0.1250000
        k(   14) = (   0.1250000  -0.3750000  -0.3750000), wk =   0.1250000
        k(   15) = (   0.3750000   0.1250000  -0.3750000), wk =   0.1250000
        k(   16) = (   0.3750000  -0.3750000   0.1250000), wk =   0.1250000
        k(   17) = (  -0.3750000  -0.3750000  -0.1250000), wk =   0.0625000
        k(   18) = (   0.3750000   0.3750000  -0.1250000), wk =   0.0625000
        k(   19) = (  -0.3750000   0.3750000  -0.3750000), wk =   0.1250000
        k(   20) = (   0.3750000   0.3750000  -0.3750000), wk =   0.0625000

     Dense  grid:    87271 G-vectors     FFT dimensions: (  60,  60,  60)

     Estimated max dynamical RAM per process >      51.85 MB

     Estimated total dynamical RAM >     207.41 MB

     Initial potential from superposition of free atoms

     starting charge   31.99553, renormalised to   32.00000
     Starting wfc are   32 randomized atomic wfcs
     Checking if some PAW data can be deallocated... 

     total cpu time spent up to now is        1.3 secs

     Self-consistent Calculation

     iteration #  1     ecut=    70.00 Ry     beta= 0.70
     Davidson diagonalization with overlap
     ethr =  1.00E-02,  avg # of iterations =  2.0

     Threshold (ethr) on eigenvalues was too large:
     Diagonalizing with lowered threshold

     Davidson diagonalization with overlap
     ethr =  6.98E-04,  avg # of iterations =  1.0

     total cpu time spent up to now is        3.9 secs

     total energy              =    -373.80682764 Ry
     Harris-Foulkes estimate   =    -373.85888229 Ry
     estimated scf accuracy    <       0.22075376 Ry

     iteration #  2     ecut=    70.00 Ry     beta= 0.70
     Davidson diagonalization with overlap
     ethr =  6.90E-04,  avg # of iterations =  1.0

     total cpu time spent up to now is        5.2 secs

     total energy              =    -373.81475290 Ry
     Harris-Foulkes estimate   =    -373.81529580 Ry
     estimated scf accuracy    <       0.00979357 Ry

     iteration #  3     ecut=    70.00 Ry     beta= 0.70
     Davidson diagonalization with overlap
     ethr =  3.06E-05,  avg # of iterations =  2.1

     total cpu time spent up to now is        6.6 secs

     total energy              =    -373.81584526 Ry
     Harris-Foulkes estimate   =    -373.81591681 Ry
     estimated scf accuracy    <       0.00020829 Ry

     iteration #  4     ecut=    70.00 Ry     beta= 0.70
     Davidson diagonalization with overlap
     ethr =  6.51E-07,  avg # of iterations =  3.2

     total cpu time spent up to now is        8.5 secs

     total energy              =    -373.81594977 Ry
     Harris-Foulkes estimate   =    -373.81595420 Ry
     estimated scf accuracy    <       0.00001107 Ry

     iteration #  5     ecut=    70.00 Ry     beta= 0.70
     Davidson diagonalization with overlap
     ethr =  3.46E-08,  avg # of iterations =  3.2

     total cpu time spent up to now is       10.3 secs

     total energy              =    -373.81595354 Ry
     Harris-Foulkes estimate   =    -373.81595397 Ry
     estimated scf accuracy    <       0.00000080 Ry

     iteration #  6     ecut=    70.00 Ry     beta= 0.70
     Davidson diagonalization with overlap
     ethr =  2.51E-09,  avg # of iterations =  3.0

     total cpu time spent up to now is       12.1 secs

     total energy              =    -373.81595376 Ry
     Harris-Foulkes estimate   =    -373.81595382 Ry
     estimated scf accuracy    <       0.00000007 Ry

     iteration #  7     ecut=    70.00 Ry     beta= 0.70
     Davidson diagonalization with overlap
     ethr =  2.13E-10,  avg # of iterations =  2.2

     total cpu time spent up to now is       13.7 secs

     total energy              =    -373.81595374 Ry
     Harris-Foulkes estimate   =    -373.81595377 Ry
     estimated scf accuracy    <          8.6E-09 Ry

     iteration #  8     ecut=    70.00 Ry     beta= 0.70
     Davidson diagonalization with overlap
     ethr =  2.70E-11,  avg # of iterations =  2.8

     total cpu time spent up to now is       15.4 secs

     End of self-consistent calculation

          k = 0.1250 0.1250 0.1250 ( 10891 PWs)   bands (ev):

    -5.6258  -2.6399  -2.5771  -2.5637  -0.8215  -0.7596  -0.7389   2.5971
     2.6342   2.6403   3.3728   3.3751   3.3965   4.3814   5.7210   5.7661

          k = 0.1250 0.1250 0.3750 ( 10909 PWs)   bands (ev):

    -5.0960  -4.0687  -2.4381  -2.4091  -0.8915  -0.8552   1.1107   2.0047
     2.0275   2.7631   3.1034   3.1237   3.3602   3.8420   4.7121   4.8224

          k = 0.1250 0.3750 0.3750 ( 10902 PWs)   bands (ev):

    -4.5946  -3.6762  -3.6327  -2.9527  -0.5864   0.2117   0.2565   1.3869
     2.0734   2.7230   2.7492   3.7393   4.0791   4.1220   4.1757   5.2697

          k = 0.3750 0.3750 0.3750 ( 10927 PWs)   bands (ev):

    -4.1574  -3.4994  -3.4509  -3.4332  -0.6776  -0.6566  -0.6117   0.0972
     3.6824   3.7488   3.7572   4.4746   4.4800   4.5093   4.9294   4.9688

          k =-0.1250 0.1250-0.1250 ( 10891 PWs)   bands (ev):

    -5.6264  -2.6318  -2.5904  -2.5498  -0.8240  -0.7803  -0.7368   2.6161
     2.6384   2.6635   3.3492   3.3770   3.3893   4.4135   5.6853   5.7638

          k = 0.1250 0.1250-0.1250 ( 10891 PWs)   bands (ev):

    -5.6269  -2.6179  -2.6039  -2.5415  -0.8198  -0.8026  -0.7394   2.6366
     2.6500   2.6786   3.3384   3.3679   3.3791   4.4461   5.6823   5.7278

          k =-0.1250 0.1250-0.3750 ( 10909 PWs)   bands (ev):

    -5.0977  -4.0651  -2.4459  -2.3982  -0.9140  -0.8417   1.0840   2.0150
     2.0417   2.7959   3.0828   3.1287   3.3884   3.8413   4.7076   4.7881

          k = 0.1250 0.1250-0.3750 ( 10909 PWs)   bands (ev):

    -5.0995  -4.0615  -2.4357  -2.4067  -0.8975  -0.8657   1.0577   2.0283
     2.0521   2.8299   3.0882   3.1083   3.4178   3.8387   4.7188   4.7369

          k = 0.3750-0.1250 0.1250 ( 10909 PWs)   bands (ev):

    -5.0977  -4.0668  -2.4394  -2.3959  -0.9051  -0.8681   1.1015   2.0220
     2.0440   2.7847   3.0926   3.1170   3.3882   3.8239   4.6924   4.8171

          k =-0.3750-0.1250-0.1250 ( 10909 PWs)   bands (ev):

    -5.0970  -4.0654  -2.4491  -2.4057  -0.8850  -0.8483   1.0960   2.0014
     2.0234   2.7720   3.1035   3.1284   3.3591   3.8554   4.7319   4.7883

          k = 0.3750 0.1250-0.1250 ( 10909 PWs)   bands (ev):

    -5.0995  -4.0632  -2.4382  -2.3946  -0.9091  -0.8724   1.0752   2.0373
     2.0524   2.8195   3.0858   3.1081   3.4162   3.8221   4.6951   4.7752

          k =-0.3750 0.1250 0.1250 ( 10909 PWs)   bands (ev):

    -5.0988  -4.0618  -2.4480  -2.4045  -0.8890  -0.8525   1.0695   2.0165
     2.0313   2.8070   3.0971   3.1199   3.3873   3.8535   4.7279   4.7531

          k =-0.1250 0.3750-0.3750 ( 10902 PWs)   bands (ev):

    -4.6005  -3.6636  -3.6212  -2.9755  -0.5391   0.1681   0.2127   1.4271
     2.0840   2.7222   2.7478   3.7469   4.1162   4.1350   4.1671   5.2140

          k = 0.1250-0.3750-0.3750 ( 10902 PWs)   bands (ev):

    -4.5971  -3.6757  -3.6327  -2.9416  -0.6147   0.2083   0.2526   1.4077
     2.0917   2.7350   2.7687   3.7195   4.0592   4.1155   4.1732   5.2752

          k = 0.3750 0.1250-0.3750 ( 10902 PWs)   bands (ev):

    -4.6030  -3.6631  -3.6213  -2.9648  -0.5672   0.1649   0.2090   1.4483
     2.1025   2.7337   2.7665   3.7267   4.0982   4.1304   4.1617   5.2193

          k = 0.3750-0.3750 0.1250 ( 10902 PWs)   bands (ev):

    -4.5994  -3.6749  -3.6210  -2.9579  -0.5776   0.1667   0.2537   1.4184
     2.0865   2.7192   2.7670   3.7309   4.0951   4.1319   4.1597   5.2455

          k =-0.3750-0.3750-0.1250 ( 10902 PWs)   bands (ev):

    -4.5969  -3.6747  -3.6217  -2.9687  -0.5496   0.1758   0.2520   1.3975
     2.0680   2.7110   2.7440   3.7531   4.1056   4.1458   4.1627   5.2393

          k = 0.3750 0.3750-0.1250 ( 10902 PWs)   bands (ev):

    -4.6019  -3.6741  -3.6215  -2.9468  -0.6059   0.1691   0.2444   1.4390
     2.1060   2.7408   2.7745   3.7105   4.0856   4.1189   4.1558   5.2497

          k =-0.3750 0.3750-0.3750 ( 10927 PWs)   bands (ev):

    -4.1659  -3.4923  -3.4551  -3.4193  -0.7077  -0.6628  -0.6176   0.1271
     3.7175   3.7580   3.7880   4.4398   4.4755   4.4948   4.9050   4.9736

          k = 0.3750 0.3750-0.3750 ( 10927 PWs)   bands (ev):

    -4.1743  -3.4775  -3.4606  -3.4121  -0.7131  -0.6692  -0.6479   0.1571
     3.7560   3.7739   3.8117   4.4164   4.4631   4.4741   4.9108   4.9475

     highest occupied level (ev):     5.7661

!    total energy              =    -373.81595375 Ry
     Harris-Foulkes estimate   =    -373.81595375 Ry
     estimated scf accuracy    <          4.2E-10 Ry

     total all-electron energy =     -4640.582898 Ry

     The total energy is the sum of the following terms:

     one-electron contribution =      22.32145191 Ry
     hartree contribution      =       4.46458300 Ry
     xc contribution           =     -48.93039791 Ry
     ewald contribution        =     -66.74701191 Ry
     one-center paw contrib.   =    -284.92457884 Ry

     convergence has been achieved in   8 iterations

     Forces acting on atoms (cartesian axes, Ry/au):

     atom    1 type  1   force =    -0.01936998   -0.00431691   -0.00327170
     atom    2 type  1   force =     0.00061719   -0.00395757   -0.00272614
     atom    3 type  1   force =     0.00405074   -0.00408025    0.00293009
     atom    4 type  1   force =    -0.00161424   -0.00396155    0.00271580
     atom    5 type  1   force =     0.00431691    0.01936998    0.00327170
     atom    6 type  1   force =     0.00408025   -0.00405074   -0.00293009
     atom    7 type  1   force =     0.00395757   -0.00061719    0.00272614
     atom    8 type  1   force =     0.00396155    0.00161424   -0.00271580

     Total force =     0.031475     Total SCF correction =     0.000008


     Computing stress (Cartesian axis) and pressure

          total   stress  (Ry/bohr**3)                   (kbar)     P=    0.36
   0.00000191   0.00000035   0.00001964          0.28      0.05      2.89
   0.00000035   0.00000191   0.00001964          0.05      0.28      2.89
   0.00001964   0.00001964   0.00000353          2.89      2.89      0.52


     init_run     :      1.15s CPU      1.17s WALL (       1 calls)
     electrons    :     14.00s CPU     14.13s WALL (       1 calls)
     forces       :      0.34s CPU      0.34s WALL (       1 calls)
     stress       :      0.76s CPU      0.77s WALL (       1 calls)

     Called by init_run:
     wfcinit      :      0.87s CPU      0.88s WALL (       1 calls)
     potinit      :      0.12s CPU      0.12s WALL (       1 calls)

     Called by electrons:
     c_bands      :     10.83s CPU     10.95s WALL (       9 calls)
     sum_band     :      2.18s CPU      2.20s WALL (       9 calls)
     v_of_rho     :      0.26s CPU      0.27s WALL (       9 calls)
     newd         :      0.12s CPU      0.13s WALL (       9 calls)
     PAW_pot      :      0.66s CPU      0.66s WALL (       9 calls)
     mix_rho      :      0.03s CPU      0.03s WALL (       9 calls)

     Called by c_bands:
     init_us_2    :      0.50s CPU      0.48s WALL (     420 calls)
     cegterg      :     10.20s CPU     10.30s WALL (     180 calls)

     Called by sum_band:
     sum_band:bec :      0.00s CPU      0.00s WALL (     180 calls)
     addusdens    :      0.13s CPU      0.13s WALL (       9 calls)

     Called by *egterg:
     h_psi        :      8.94s CPU      9.02s WALL (     610 calls)
     s_psi        :      0.48s CPU      0.52s WALL (     610 calls)
     g_psi        :      0.02s CPU      0.04s WALL (     410 calls)
     cdiaghg      :      0.18s CPU      0.18s WALL (     570 calls)

     Called by h_psi:
     h_psi:pot    :      8.87s CPU      8.93s WALL (     610 calls)
     h_psi:calbec :      0.61s CPU      0.57s WALL (     610 calls)
     vloc_psi     :      7.84s CPU      7.94s WALL (     610 calls)
     add_vuspsi   :      0.42s CPU      0.42s WALL (     610 calls)

     General routines
     calbec       :      0.94s CPU      0.90s WALL (     890 calls)
     fft          :      0.11s CPU      0.11s WALL (     144 calls)
     fftw         :      7.28s CPU      7.45s WALL (   20110 calls)

     Parallel routines
     fft_scatt_xy :      0.70s CPU      0.75s WALL (   20254 calls)
     fft_scatt_yz :      1.29s CPU      1.33s WALL (   20254 calls)

     PWSCF        :    16.34s CPU        16.50s WALL


   This run was terminated on:  11:51: 3  24Oct2021            

=------------------------------------------------------------------------------=
   JOB DONE.
=------------------------------------------------------------------------------=
Note: The following floating-point exceptions are signalling: IEEE_UNDERFLOW_FLAG IEEE_DENORMAL
