
     Program PWSCF v.6.2 (svn rev. 13949:13950) starts on 24Oct2021 at 11:51:20 

     This program is part of the open-source Quantum ESPRESSO suite
     for quantum simulation of materials; please cite
         "P. Giannozzi et al., J. Phys.:Condens. Matter 21 395502 (2009);
         "P. Giannozzi et al., J. Phys.:Condens. Matter 29 465901 (2017);
          URL http://www.quantum-espresso.org", 
     in publications or presentations arising from this work. More details at
     http://www.quantum-espresso.org/quote

     Parallel version (MPI), running on     4 processors

     MPI processes distributed on     1 nodes
     R & G space division:  proc/nbgrp/npool/nimage =       4
     Reading input from headeradd_supercell-00012.in

     Current dimensions of program PWSCF are:
     Max number of different atomic species (ntypx) = 10
     Max number of k-points (npk) =  40000
     Max angular momentum in pseudopotentials (lmaxx) =  3
     Message from routine iosys:
     minimal I/O required, wf_collect reset to FALSE
               file Si.pbe-n-kjpaw_psl.0.1.UPF: wavefunction(s)  3S renormalized

     Subspace diagonalization in iterative solution of the eigenvalue problem:
     a serial algorithm will be used


     Parallelization info
     --------------------
     sticks:   dense  smooth     PW     G-vecs:    dense   smooth      PW
     Min         593     593    164                21816    21816    3132
     Max         595     595    165                21819    21819    3135
     Sum        2377    2377    657                87271    87271   12533



     bravais-lattice index     =            0
     lattice parameter (alat)  =      10.3296  a.u.
     unit-cell volume          =    1102.1598 (a.u.)^3
     number of atoms/cell      =            8
     number of atomic types    =            1
     number of electrons       =        32.00
     number of Kohn-Sham states=           16
     kinetic-energy cutoff     =      70.0000  Ry
     charge density cutoff     =     280.0000  Ry
     convergence threshold     =      1.0E-09
     mixing beta               =       0.7000
     number of iterations used =            8  plain     mixing
     Exchange-correlation      =  SLA  PW   PBX  PBC ( 1  4  3  4 0 0)

     celldm(1)=  10.329553  celldm(2)=   0.000000  celldm(3)=   0.000000
     celldm(4)=   0.000000  celldm(5)=   0.000000  celldm(6)=   0.000000

     crystal axes: (cart. coord. in units of alat)
               a(1) = (   1.000000   0.000000   0.000000 )  
               a(2) = (   0.000000   1.000000   0.000000 )  
               a(3) = (   0.000000   0.000000   1.000000 )  

     reciprocal axes: (cart. coord. in units 2 pi/alat)
               b(1) = (  1.000000  0.000000  0.000000 )  
               b(2) = (  0.000000  1.000000  0.000000 )  
               b(3) = (  0.000000  0.000000  1.000000 )  


     PseudoPot. # 1 for Si read from file:
     /home/uezono/pseudo/Si.pbe-n-kjpaw_psl.0.1.UPF
     MD5 check sum: 0810ef13ebffcf5dbabd57b297315270
     Pseudo is Projector augmented-wave + core cor, Zval =  4.0
     Generated using "atomic" code by A. Dal Corso  v.5.0.2 svn rev. 9415
     Shape of augmentation charge: PSQ
     Using radial grid of 1141 points,  4 beta functions with: 
                l(1) =   0
                l(2) =   0
                l(3) =   1
                l(4) =   1
     Q(r) pseudized with 0 coefficients 


     atomic species   valence    mass     pseudopotential
        Si             4.00    28.08550     Si( 1.00)

      4 Sym. Ops., with inversion, found



   Cartesian axes

     site n.     atom                  positions (alat units)
         1           Si  tau(   1) = (   0.8808086   0.8750000   0.8750000  )
         2           Si  tau(   2) = (   0.8750000   0.3750000   0.3750000  )
         3           Si  tau(   3) = (   0.3750000   0.8750000   0.3750000  )
         4           Si  tau(   4) = (   0.3750000   0.3750000   0.8750000  )
         5           Si  tau(   5) = (   0.1191914   0.1250000   0.1250000  )
         6           Si  tau(   6) = (   0.1250000   0.6250000   0.6250000  )
         7           Si  tau(   7) = (   0.6250000   0.1250000   0.6250000  )
         8           Si  tau(   8) = (   0.6250000   0.6250000   0.1250000  )

     number of k points=    20
                       cart. coord. in units 2pi/alat
        k(    1) = (   0.1250000   0.1250000   0.1250000), wk =   0.0625000
        k(    2) = (   0.1250000   0.1250000   0.3750000), wk =   0.1250000
        k(    3) = (   0.1250000   0.3750000   0.3750000), wk =   0.0625000
        k(    4) = (   0.3750000   0.3750000   0.3750000), wk =   0.0625000
        k(    5) = (   0.1250000   0.1250000  -0.1250000), wk =   0.1250000
        k(    6) = (  -0.1250000   0.1250000   0.1250000), wk =   0.0625000
        k(    7) = (   0.1250000   0.1250000  -0.3750000), wk =   0.1250000
        k(    8) = (   0.1250000  -0.1250000   0.3750000), wk =   0.1250000
        k(    9) = (  -0.1250000   0.1250000   0.3750000), wk =   0.1250000
        k(   10) = (   0.3750000  -0.1250000   0.1250000), wk =   0.1250000
        k(   11) = (  -0.3750000  -0.1250000  -0.1250000), wk =   0.0625000
        k(   12) = (  -0.3750000   0.1250000   0.1250000), wk =   0.0625000
        k(   13) = (   0.3750000   0.1250000  -0.3750000), wk =   0.1250000
        k(   14) = (  -0.3750000  -0.1250000  -0.3750000), wk =   0.1250000
        k(   15) = (   0.3750000  -0.1250000   0.3750000), wk =   0.1250000
        k(   16) = (  -0.3750000   0.1250000   0.3750000), wk =   0.1250000
        k(   17) = (  -0.1250000   0.3750000   0.3750000), wk =   0.0625000
        k(   18) = (  -0.1250000  -0.3750000   0.3750000), wk =   0.1250000
        k(   19) = (   0.3750000   0.3750000  -0.3750000), wk =   0.1250000
        k(   20) = (  -0.3750000   0.3750000   0.3750000), wk =   0.0625000

     Dense  grid:    87271 G-vectors     FFT dimensions: (  60,  60,  60)

     Estimated max dynamical RAM per process >      51.85 MB

     Estimated total dynamical RAM >     207.41 MB

     Initial potential from superposition of free atoms

     starting charge   31.99553, renormalised to   32.00000
     Starting wfc are   32 randomized atomic wfcs
     Checking if some PAW data can be deallocated... 

     total cpu time spent up to now is        1.2 secs

     Self-consistent Calculation

     iteration #  1     ecut=    70.00 Ry     beta= 0.70
     Davidson diagonalization with overlap
     ethr =  1.00E-02,  avg # of iterations =  2.0

     Threshold (ethr) on eigenvalues was too large:
     Diagonalizing with lowered threshold

     Davidson diagonalization with overlap
     ethr =  6.98E-04,  avg # of iterations =  1.0

     total cpu time spent up to now is        4.1 secs

     total energy              =    -373.80674185 Ry
     Harris-Foulkes estimate   =    -373.85881949 Ry
     estimated scf accuracy    <       0.22087457 Ry

     iteration #  2     ecut=    70.00 Ry     beta= 0.70
     Davidson diagonalization with overlap
     ethr =  6.90E-04,  avg # of iterations =  1.0

     total cpu time spent up to now is        5.4 secs

     total energy              =    -373.81468427 Ry
     Harris-Foulkes estimate   =    -373.81522252 Ry
     estimated scf accuracy    <       0.00977476 Ry

     iteration #  3     ecut=    70.00 Ry     beta= 0.70
     Davidson diagonalization with overlap
     ethr =  3.05E-05,  avg # of iterations =  2.3

     total cpu time spent up to now is        7.0 secs

     total energy              =    -373.81578127 Ry
     Harris-Foulkes estimate   =    -373.81585301 Ry
     estimated scf accuracy    <       0.00020902 Ry

     iteration #  4     ecut=    70.00 Ry     beta= 0.70
     Davidson diagonalization with overlap
     ethr =  6.53E-07,  avg # of iterations =  3.2

     total cpu time spent up to now is        9.0 secs

     total energy              =    -373.81588540 Ry
     Harris-Foulkes estimate   =    -373.81588970 Ry
     estimated scf accuracy    <       0.00001086 Ry

     iteration #  5     ecut=    70.00 Ry     beta= 0.70
     Davidson diagonalization with overlap
     ethr =  3.39E-08,  avg # of iterations =  3.1

     total cpu time spent up to now is       10.9 secs

     total energy              =    -373.81588905 Ry
     Harris-Foulkes estimate   =    -373.81588938 Ry
     estimated scf accuracy    <       0.00000062 Ry

     iteration #  6     ecut=    70.00 Ry     beta= 0.70
     Davidson diagonalization with overlap
     ethr =  1.95E-09,  avg # of iterations =  3.1

     total cpu time spent up to now is       12.9 secs

     total energy              =    -373.81588923 Ry
     Harris-Foulkes estimate   =    -373.81588929 Ry
     estimated scf accuracy    <       0.00000006 Ry

     iteration #  7     ecut=    70.00 Ry     beta= 0.70
     Davidson diagonalization with overlap
     ethr =  1.93E-10,  avg # of iterations =  2.1

     total cpu time spent up to now is       14.7 secs

     total energy              =    -373.81588921 Ry
     Harris-Foulkes estimate   =    -373.81588923 Ry
     estimated scf accuracy    <          6.0E-09 Ry

     iteration #  8     ecut=    70.00 Ry     beta= 0.70
     Davidson diagonalization with overlap
     ethr =  1.86E-11,  avg # of iterations =  2.9

     total cpu time spent up to now is       16.7 secs

     End of self-consistent calculation

          k = 0.1250 0.1250 0.1250 ( 10891 PWs)   bands (ev):

    -5.6257  -2.6282  -2.5861  -2.5668  -0.7871  -0.7819  -0.7507   2.6032
     2.6305   2.6378   3.3626   3.3750   3.4090   4.3814   5.6985   5.7874

          k = 0.1250 0.1250 0.3750 ( 10909 PWs)   bands (ev):

    -5.0959  -4.0686  -2.4415  -2.4049  -0.9045  -0.8426   1.1102   2.0066
     2.0250   2.7645   3.0895   3.1357   3.3619   3.8432   4.7068   4.8266

          k = 0.1250 0.3750 0.3750 ( 10902 PWs)   bands (ev):

    -4.5921  -3.6935  -3.6268  -2.9366  -0.6234   0.2433   0.2641   1.3766
     2.0798   2.7278   2.7617   3.7295   4.0214   4.1255   4.1903   5.2985

          k = 0.3750 0.3750 0.3750 ( 10927 PWs)   bands (ev):

    -4.1568  -3.5119  -3.4394  -3.4318  -0.6984  -0.6481  -0.6004   0.0976
     3.6835   3.7407   3.7625   4.4714   4.4748   4.5263   4.9065   4.9858

          k = 0.1250 0.1250-0.1250 ( 10891 PWs)   bands (ev):

    -5.6268  -2.6187  -2.5842  -2.5608  -0.8179  -0.7947  -0.7487   2.6389
     2.6494   2.6782   3.3381   3.3721   3.3754   4.4453   5.6603   5.7512

          k =-0.1250 0.1250 0.1250 ( 10891 PWs)   bands (ev):

    -5.6257  -2.6512  -2.5669  -2.5613  -0.8327  -0.7506  -0.7378   2.5952
     2.6379   2.6381   3.3629   3.3846   3.3989   4.3809   5.6996   5.7880

          k = 0.1250 0.1250-0.3750 ( 10909 PWs)   bands (ev):

    -5.0994  -4.0614  -2.4394  -2.4022  -0.9138  -0.8501   1.0579   2.0324
     2.0490   2.8285   3.0763   3.1217   3.4159   3.8390   4.7023   4.7547

          k = 0.1250-0.1250 0.3750 ( 10909 PWs)   bands (ev):

    -5.0994  -4.0611  -2.4447  -2.3972  -0.9176  -0.8457   1.0573   2.0291
     2.0520   2.8293   3.0754   3.1225   3.4150   3.8396   4.7027   4.7545

          k =-0.1250 0.1250 0.3750 ( 10909 PWs)   bands (ev):

    -5.0958  -4.0688  -2.4465  -2.3994  -0.9098  -0.8376   1.1107   2.0029
     2.0283   2.7637   3.0887   3.1368   3.3613   3.8435   4.7076   4.8269

          k = 0.3750-0.1250 0.1250 ( 10909 PWs)   bands (ev):

    -5.0993  -4.0645  -2.4130  -2.4123  -0.8990  -0.8983   1.0917   2.0497
     2.0499   2.8089   3.0965   3.0970   3.4155   3.8030   4.6764   4.8093

          k =-0.3750-0.1250-0.1250 ( 10909 PWs)   bands (ev):

    -5.0978  -4.0616  -2.4676  -2.3958  -0.8688  -0.8500   1.0803   1.9952
     2.0227   2.7811   3.1125   3.1258   3.3580   3.8697   4.7491   4.7556

          k =-0.3750 0.1250 0.1250 ( 10909 PWs)   bands (ev):

    -5.0977  -4.0621  -2.4667  -2.3958  -0.8698  -0.8500   1.0815   1.9948
     2.0227   2.7799   3.1125   3.1261   3.3582   3.8694   4.7497   4.7559

          k = 0.3750 0.1250-0.3750 ( 10902 PWs)   bands (ev):

    -4.6016  -3.6746  -3.6204  -2.9479  -0.6050   0.1636   0.2498   1.4388
     2.1063   2.7334   2.7819   3.7100   4.0852   4.1167   4.1584   5.2510

          k =-0.3750-0.1250-0.3750 ( 10902 PWs)   bands (ev):

    -4.5966  -3.6554  -3.6418  -2.9679  -0.5497   0.1925   0.2351   1.3977
     2.0674   2.7111   2.7450   3.7529   4.1162   4.1362   4.1619   5.2395

          k = 0.3750-0.1250 0.3750 ( 10902 PWs)   bands (ev):

    -4.6018  -3.6516  -3.6438  -2.9474  -0.6054   0.1853   0.2281   1.4392
     2.1062   2.7391   2.7752   3.7110   4.0957   4.1086   4.1562   5.2507

          k =-0.3750 0.1250 0.3750 ( 10902 PWs)   bands (ev):

    -4.5963  -3.6764  -3.6207  -2.9684  -0.5490   0.1706   0.2575   1.3967
     2.0669   2.7051   2.7514   3.7516   4.1104   4.1409   4.1642   5.2400

          k =-0.1250 0.3750 0.3750 ( 10902 PWs)   bands (ev):

    -4.5920  -3.6937  -3.6268  -2.9366  -0.6231   0.2433   0.2646   1.3760
     2.0793   2.7277   2.7612   3.7293   4.0229   4.1263   4.1894   5.2988

          k =-0.1250-0.3750 0.3750 ( 10902 PWs)   bands (ev):

    -4.6043  -3.6364  -3.6362  -2.9818  -0.5294   0.1670   0.1677   1.4578
     2.0986   2.7423   2.7432   3.7416   4.1116   4.1541   4.1551   5.1903

          k = 0.3750 0.3750-0.3750 ( 10927 PWs)   bands (ev):

    -4.1747  -3.4749  -3.4400  -3.4343  -0.7041  -0.7012  -0.6249   0.1572
     3.7589   3.7816   3.8014   4.4144   4.4652   4.4710   4.8943   4.9681

          k =-0.3750 0.3750 0.3750 ( 10927 PWs)   bands (ev):

    -4.1563  -3.5169  -3.4349  -3.4318  -0.7027  -0.6481  -0.5948   0.0965
     3.6770   3.7457   3.7625   4.4720   4.4885   4.5109   4.9081   4.9875

     highest occupied level (ev):     5.7880

!    total energy              =    -373.81588922 Ry
     Harris-Foulkes estimate   =    -373.81588921 Ry
     estimated scf accuracy    <          2.8E-10 Ry

     total all-electron energy =     -4640.582833 Ry

     The total energy is the sum of the following terms:

     one-electron contribution =      22.32269478 Ry
     hartree contribution      =       4.46393873 Ry
     xc contribution           =     -48.93022053 Ry
     ewald contribution        =     -66.74775758 Ry
     one-center paw contrib.   =    -284.92454461 Ry

     convergence has been achieved in   8 iterations

     Forces acting on atoms (cartesian axes, Ry/au):

     atom    1 type  1   force =    -0.02038157   -0.00317397   -0.00317397
     atom    2 type  1   force =    -0.00619074    0.00294141    0.00294141
     atom    3 type  1   force =    -0.00285646    0.00272757   -0.00272221
     atom    4 type  1   force =    -0.00285646   -0.00272221    0.00272757
     atom    5 type  1   force =     0.02038157    0.00317397    0.00317397
     atom    6 type  1   force =     0.00619074   -0.00294141   -0.00294141
     atom    7 type  1   force =     0.00285646   -0.00272757    0.00272221
     atom    8 type  1   force =     0.00285646    0.00272221   -0.00272757

     Total force =     0.032778     Total SCF correction =     0.000005


     Computing stress (Cartesian axis) and pressure

          total   stress  (Ry/bohr**3)                   (kbar)     P=    0.33
   0.00000015   0.00000025   0.00000025          0.02      0.04      0.04
   0.00000025   0.00000325   0.00003864          0.04      0.48      5.68
   0.00000025   0.00003864   0.00000325          0.04      5.68      0.48


     init_run     :      1.13s CPU      1.15s WALL (       1 calls)
     electrons    :     15.28s CPU     15.41s WALL (       1 calls)
     forces       :      0.37s CPU      0.37s WALL (       1 calls)
     stress       :      0.80s CPU      0.81s WALL (       1 calls)

     Called by init_run:
     wfcinit      :      0.86s CPU      0.87s WALL (       1 calls)
     potinit      :      0.12s CPU      0.12s WALL (       1 calls)

     Called by electrons:
     c_bands      :     11.75s CPU     11.84s WALL (       9 calls)
     sum_band     :      2.50s CPU      2.53s WALL (       9 calls)
     v_of_rho     :      0.28s CPU      0.29s WALL (       9 calls)
     newd         :      0.12s CPU      0.14s WALL (       9 calls)
     PAW_pot      :      0.69s CPU      0.68s WALL (       9 calls)
     mix_rho      :      0.04s CPU      0.04s WALL (       9 calls)

     Called by c_bands:
     init_us_2    :      0.42s CPU      0.46s WALL (     420 calls)
     cegterg      :     11.08s CPU     11.16s WALL (     180 calls)

     Called by sum_band:
     sum_band:bec :      0.00s CPU      0.00s WALL (     180 calls)
     addusdens    :      0.13s CPU      0.14s WALL (       9 calls)

     Called by *egterg:
     h_psi        :      9.66s CPU      9.71s WALL (     615 calls)
     s_psi        :      0.54s CPU      0.54s WALL (     615 calls)
     g_psi        :      0.04s CPU      0.04s WALL (     415 calls)
     cdiaghg      :      0.18s CPU      0.19s WALL (     575 calls)

     Called by h_psi:
     h_psi:pot    :      9.58s CPU      9.62s WALL (     615 calls)
     h_psi:calbec :      0.63s CPU      0.60s WALL (     615 calls)
     vloc_psi     :      8.46s CPU      8.58s WALL (     615 calls)
     add_vuspsi   :      0.49s CPU      0.44s WALL (     615 calls)

     General routines
     calbec       :      0.95s CPU      0.93s WALL (     895 calls)
     fft          :      0.11s CPU      0.13s WALL (     144 calls)
     fftw         :      8.16s CPU      8.13s WALL (   20154 calls)

     Parallel routines
     fft_scatt_xy :      0.80s CPU      0.81s WALL (   20298 calls)
     fft_scatt_yz :      1.84s CPU      1.76s WALL (   20298 calls)

     PWSCF        :    17.67s CPU        17.83s WALL


   This run was terminated on:  11:51:38  24Oct2021            

=------------------------------------------------------------------------------=
   JOB DONE.
=------------------------------------------------------------------------------=
Note: The following floating-point exceptions are signalling: IEEE_UNDERFLOW_FLAG IEEE_DENORMAL
