
     Program PWSCF v.6.2 (svn rev. 13949:13950) starts on 24Oct2021 at 11:52:39 

     This program is part of the open-source Quantum ESPRESSO suite
     for quantum simulation of materials; please cite
         "P. Giannozzi et al., J. Phys.:Condens. Matter 21 395502 (2009);
         "P. Giannozzi et al., J. Phys.:Condens. Matter 29 465901 (2017);
          URL http://www.quantum-espresso.org", 
     in publications or presentations arising from this work. More details at
     http://www.quantum-espresso.org/quote

     Parallel version (MPI), running on     4 processors

     MPI processes distributed on     1 nodes
     R & G space division:  proc/nbgrp/npool/nimage =       4
     Reading input from headeradd_supercell-00016.in

     Current dimensions of program PWSCF are:
     Max number of different atomic species (ntypx) = 10
     Max number of k-points (npk) =  40000
     Max angular momentum in pseudopotentials (lmaxx) =  3
     Message from routine iosys:
     minimal I/O required, wf_collect reset to FALSE
               file Si.pbe-n-kjpaw_psl.0.1.UPF: wavefunction(s)  3S renormalized

     Subspace diagonalization in iterative solution of the eigenvalue problem:
     a serial algorithm will be used


     Parallelization info
     --------------------
     sticks:   dense  smooth     PW     G-vecs:    dense   smooth      PW
     Min         593     593    164                21816    21816    3132
     Max         595     595    165                21819    21819    3135
     Sum        2377    2377    657                87271    87271   12533



     bravais-lattice index     =            0
     lattice parameter (alat)  =      10.3296  a.u.
     unit-cell volume          =    1102.1598 (a.u.)^3
     number of atoms/cell      =            8
     number of atomic types    =            1
     number of electrons       =        32.00
     number of Kohn-Sham states=           16
     kinetic-energy cutoff     =      70.0000  Ry
     charge density cutoff     =     280.0000  Ry
     convergence threshold     =      1.0E-09
     mixing beta               =       0.7000
     number of iterations used =            8  plain     mixing
     Exchange-correlation      =  SLA  PW   PBX  PBC ( 1  4  3  4 0 0)

     celldm(1)=  10.329553  celldm(2)=   0.000000  celldm(3)=   0.000000
     celldm(4)=   0.000000  celldm(5)=   0.000000  celldm(6)=   0.000000

     crystal axes: (cart. coord. in units of alat)
               a(1) = (   1.000000   0.000000   0.000000 )  
               a(2) = (   0.000000   1.000000   0.000000 )  
               a(3) = (   0.000000   0.000000   1.000000 )  

     reciprocal axes: (cart. coord. in units 2 pi/alat)
               b(1) = (  1.000000  0.000000  0.000000 )  
               b(2) = (  0.000000  1.000000  0.000000 )  
               b(3) = (  0.000000  0.000000  1.000000 )  


     PseudoPot. # 1 for Si read from file:
     /home/uezono/pseudo/Si.pbe-n-kjpaw_psl.0.1.UPF
     MD5 check sum: 0810ef13ebffcf5dbabd57b297315270
     Pseudo is Projector augmented-wave + core cor, Zval =  4.0
     Generated using "atomic" code by A. Dal Corso  v.5.0.2 svn rev. 9415
     Shape of augmentation charge: PSQ
     Using radial grid of 1141 points,  4 beta functions with: 
                l(1) =   0
                l(2) =   0
                l(3) =   1
                l(4) =   1
     Q(r) pseudized with 0 coefficients 


     atomic species   valence    mass     pseudopotential
        Si             4.00    28.08550     Si( 1.00)

      4 Sym. Ops., with inversion, found ( 3 have fractional translation)



   Cartesian axes

     site n.     atom                  positions (alat units)
         1           Si  tau(   1) = (   0.8808086   0.8750000   0.8750000  )
         2           Si  tau(   2) = (   0.8750000   0.3750000   0.3750000  )
         3           Si  tau(   3) = (   0.3750000   0.8750000   0.3750000  )
         4           Si  tau(   4) = (   0.3750000   0.3750000   0.8750000  )
         5           Si  tau(   5) = (   0.1250000   0.1250000   0.1250000  )
         6           Si  tau(   6) = (   0.1250000   0.6250000   0.6250000  )
         7           Si  tau(   7) = (   0.6191914   0.1250000   0.6250000  )
         8           Si  tau(   8) = (   0.6250000   0.6250000   0.1250000  )

     number of k points=    20
                       cart. coord. in units 2pi/alat
        k(    1) = (   0.1250000   0.1250000   0.1250000), wk =   0.1250000
        k(    2) = (   0.1250000   0.1250000   0.3750000), wk =   0.1250000
        k(    3) = (   0.1250000   0.3750000   0.3750000), wk =   0.1250000
        k(    4) = (   0.3750000   0.3750000   0.3750000), wk =   0.1250000
        k(    5) = (   0.1250000   0.1250000  -0.1250000), wk =   0.0625000
        k(    6) = (   0.1250000  -0.1250000   0.1250000), wk =   0.0625000
        k(    7) = (   0.1250000   0.1250000  -0.3750000), wk =   0.1250000
        k(    8) = (   0.1250000  -0.1250000   0.3750000), wk =   0.1250000
        k(    9) = (  -0.1250000   0.1250000   0.3750000), wk =   0.1250000
        k(   10) = (   0.3750000  -0.1250000   0.1250000), wk =   0.0625000
        k(   11) = (  -0.3750000  -0.1250000  -0.1250000), wk =   0.1250000
        k(   12) = (   0.3750000   0.1250000  -0.1250000), wk =   0.0625000
        k(   13) = (   0.3750000   0.1250000  -0.3750000), wk =   0.1250000
        k(   14) = (  -0.3750000  -0.1250000  -0.3750000), wk =   0.1250000
        k(   15) = (   0.3750000  -0.1250000   0.3750000), wk =   0.1250000
        k(   16) = (  -0.3750000   0.1250000   0.3750000), wk =   0.1250000
        k(   17) = (  -0.1250000  -0.3750000   0.3750000), wk =   0.0625000
        k(   18) = (   0.1250000  -0.3750000   0.3750000), wk =   0.0625000
        k(   19) = (   0.3750000   0.3750000  -0.3750000), wk =   0.0625000
        k(   20) = (   0.3750000  -0.3750000   0.3750000), wk =   0.0625000

     Dense  grid:    87271 G-vectors     FFT dimensions: (  60,  60,  60)

     Estimated max dynamical RAM per process >      51.85 MB

     Estimated total dynamical RAM >     207.41 MB

     Initial potential from superposition of free atoms

     starting charge   31.99553, renormalised to   32.00000
     Starting wfc are   32 randomized atomic wfcs
     Checking if some PAW data can be deallocated... 

     total cpu time spent up to now is        1.3 secs

     Self-consistent Calculation

     iteration #  1     ecut=    70.00 Ry     beta= 0.70
     Davidson diagonalization with overlap
     ethr =  1.00E-02,  avg # of iterations =  2.0

     Threshold (ethr) on eigenvalues was too large:
     Diagonalizing with lowered threshold

     Davidson diagonalization with overlap
     ethr =  6.98E-04,  avg # of iterations =  1.0

     total cpu time spent up to now is        4.4 secs

     total energy              =    -373.80676703 Ry
     Harris-Foulkes estimate   =    -373.85882888 Ry
     estimated scf accuracy    <       0.22077262 Ry

     iteration #  2     ecut=    70.00 Ry     beta= 0.70
     Davidson diagonalization with overlap
     ethr =  6.90E-04,  avg # of iterations =  1.0

     total cpu time spent up to now is        5.8 secs

     total energy              =    -373.81470018 Ry
     Harris-Foulkes estimate   =    -373.81524196 Ry
     estimated scf accuracy    <       0.00978964 Ry

     iteration #  3     ecut=    70.00 Ry     beta= 0.70
     Davidson diagonalization with overlap
     ethr =  3.06E-05,  avg # of iterations =  2.4

     total cpu time spent up to now is        7.4 secs

     total energy              =    -373.81579498 Ry
     Harris-Foulkes estimate   =    -373.81586710 Ry
     estimated scf accuracy    <       0.00020895 Ry

     iteration #  4     ecut=    70.00 Ry     beta= 0.70
     Davidson diagonalization with overlap
     ethr =  6.53E-07,  avg # of iterations =  3.1

     total cpu time spent up to now is        9.6 secs

     total energy              =    -373.81589890 Ry
     Harris-Foulkes estimate   =    -373.81590404 Ry
     estimated scf accuracy    <       0.00001236 Ry

     iteration #  5     ecut=    70.00 Ry     beta= 0.70
     Davidson diagonalization with overlap
     ethr =  3.86E-08,  avg # of iterations =  3.2

     total cpu time spent up to now is       11.5 secs

     total energy              =    -373.81590290 Ry
     Harris-Foulkes estimate   =    -373.81590354 Ry
     estimated scf accuracy    <       0.00000129 Ry

     iteration #  6     ecut=    70.00 Ry     beta= 0.70
     Davidson diagonalization with overlap
     ethr =  4.03E-09,  avg # of iterations =  2.8

     total cpu time spent up to now is       13.3 secs

     total energy              =    -373.81590324 Ry
     Harris-Foulkes estimate   =    -373.81590330 Ry
     estimated scf accuracy    <       0.00000006 Ry

     iteration #  7     ecut=    70.00 Ry     beta= 0.70
     Davidson diagonalization with overlap
     ethr =  1.95E-10,  avg # of iterations =  2.6

     total cpu time spent up to now is       15.1 secs

     total energy              =    -373.81590324 Ry
     Harris-Foulkes estimate   =    -373.81590326 Ry
     estimated scf accuracy    <          6.5E-09 Ry

     iteration #  8     ecut=    70.00 Ry     beta= 0.70
     Davidson diagonalization with overlap
     ethr =  2.04E-11,  avg # of iterations =  3.0

     total cpu time spent up to now is       17.2 secs

     End of self-consistent calculation

          k = 0.1250 0.1250 0.1250 ( 10891 PWs)   bands (ev):

    -5.6257  -2.6197  -2.5979  -2.5633  -0.8115  -0.7668  -0.7413   2.6017
     2.6308   2.6406   3.3694   3.3733   3.4019   4.3801   5.6991   5.7891

          k = 0.1250 0.1250 0.3750 ( 10909 PWs)   bands (ev):

    -5.0959  -4.0683  -2.4473  -2.3995  -0.9095  -0.8373   1.1097   2.0050
     2.0294   2.7619   3.0922   3.1361   3.3565   3.8434   4.7074   4.8284

          k = 0.1250 0.3750 0.3750 ( 10902 PWs)   bands (ev):

    -4.5925  -3.6605  -3.6604  -2.9357  -0.6237   0.2536   0.2542   1.3779
     2.0778   2.7445   2.7452   3.7298   4.0734   4.0745   4.1866   5.3017

          k = 0.3750 0.3750 0.3750 ( 10927 PWs)   bands (ev):

    -4.1577  -3.4768  -3.4724  -3.4336  -0.7018  -0.6240  -0.6204   0.0975
     3.7100   3.7260   3.7518   4.4724   4.4795   4.5105   4.9073   4.9943

          k = 0.1250 0.1250-0.1250 ( 10891 PWs)   bands (ev):

    -5.6268  -2.6192  -2.6127  -2.5302  -0.8223  -0.8115  -0.7291   2.6399
     2.6416   2.6832   3.3424   3.3595   3.3856   4.4460   5.6591   5.7518

          k = 0.1250-0.1250 0.1250 ( 10891 PWs)   bands (ev):

    -5.6268  -2.6127  -2.5964  -2.5547  -0.8115  -0.7789  -0.7710   2.6415
     2.6477   2.6757   3.3344   3.3679   3.3853   4.4465   5.6585   5.7505

          k = 0.1250 0.1250-0.3750 ( 10909 PWs)   bands (ev):

    -5.0993  -4.0616  -2.4446  -2.3965  -0.9179  -0.8461   1.0583   2.0280
     2.0501   2.8310   3.0762   3.1190   3.4192   3.8399   4.7014   4.7545

          k = 0.1250-0.1250 0.3750 ( 10909 PWs)   bands (ev):

    -5.0994  -4.0614  -2.4403  -2.4013  -0.9144  -0.8492   1.0578   2.0319
     2.0466   2.8316   3.0776   3.1172   3.4201   3.8396   4.7009   4.7538

          k =-0.1250 0.1250 0.3750 ( 10909 PWs)   bands (ev):

    -5.0959  -4.0685  -2.4425  -2.4040  -0.9054  -0.8420   1.1103   2.0091
     2.0254   2.7613   3.0944   3.1342   3.3574   3.8428   4.7070   4.8286

          k = 0.3750-0.1250 0.1250 ( 10909 PWs)   bands (ev):

    -5.0993  -4.0644  -2.4472  -2.3771  -0.9073  -0.8912   1.0913   2.0351
     2.0651   2.8072   3.0913   3.1019   3.4165   3.8063   4.6732   4.8098

          k =-0.3750-0.1250-0.1250 ( 10909 PWs)   bands (ev):

    -5.0978  -4.0618  -2.4324  -2.4318  -0.8593  -0.8585   1.0808   2.0085
     2.0087   2.7827   3.1190   3.1196   3.3569   3.8666   4.7486   4.7587

          k = 0.3750 0.1250-0.1250 ( 10909 PWs)   bands (ev):

    -5.0992  -4.0648  -2.4472  -2.3763  -0.9073  -0.8922   1.0924   2.0351
     2.0648   2.8064   3.0915   3.1019   3.4166   3.8060   4.6734   4.8104

          k = 0.3750 0.1250-0.3750 ( 10902 PWs)   bands (ev):

    -4.6013  -3.6743  -3.6220  -2.9466  -0.6051   0.1638   0.2499   1.4376
     2.1047   2.7349   2.7825   3.7116   4.0853   4.1172   4.1567   5.2508

          k =-0.3750-0.1250-0.3750 ( 10902 PWs)   bands (ev):

    -4.5968  -3.6545  -3.6417  -2.9692  -0.5493   0.1928   0.2350   1.3983
     2.0686   2.7098   2.7436   3.7505   4.1164   4.1366   4.1640   5.2401

          k = 0.3750-0.1250 0.3750 ( 10902 PWs)   bands (ev):

    -4.6016  -3.6518  -3.6446  -2.9462  -0.6058   0.1855   0.2279   1.4385
     2.1051   2.7407   2.7763   3.7128   4.0957   4.1068   4.1556   5.2503

          k =-0.3750 0.1250 0.3750 ( 10902 PWs)   bands (ev):

    -4.5966  -3.6747  -3.6210  -2.9697  -0.5488   0.1705   0.2570   1.3979
     2.0687   2.7043   2.7500   3.7498   4.1085   4.1433   4.1649   5.2404

          k =-0.1250-0.3750 0.3750 ( 10902 PWs)   bands (ev):

    -4.6038  -3.6683  -3.6040  -2.9826  -0.5289   0.1581   0.1766   1.4556
     2.1004   2.7260   2.7589   3.7413   4.1006   4.1161   4.2082   5.1872

          k = 0.1250-0.3750 0.3750 ( 10902 PWs)   bands (ev):

    -4.6039  -3.6683  -3.6037  -2.9827  -0.5291   0.1576   0.1766   1.4561
     2.1009   2.7265   2.7590   3.7415   4.0982   4.1187   4.2069   5.1869

          k = 0.3750 0.3750-0.3750 ( 10927 PWs)   bands (ev):

    -4.1732  -3.4791  -3.4759  -3.3953  -0.7296  -0.6778  -0.6223   0.1561
     3.7485   3.7663   3.8240   4.4277   4.4507   4.4813   4.8875   4.9691

          k = 0.3750-0.3750 0.3750 ( 10927 PWs)   bands (ev):

    -4.1736  -3.4791  -3.4708  -3.3999  -0.7249  -0.6778  -0.6281   0.1571
     3.7486   3.7709   3.8210   4.4146   4.4656   4.4810   4.8856   4.9672

     highest occupied level (ev):     5.7891

!    total energy              =    -373.81590324 Ry
     Harris-Foulkes estimate   =    -373.81590324 Ry
     estimated scf accuracy    <          2.8E-10 Ry

     total all-electron energy =     -4640.582847 Ry

     The total energy is the sum of the following terms:

     one-electron contribution =      22.32252029 Ry
     hartree contribution      =       4.46400474 Ry
     xc contribution           =     -48.93022433 Ry
     ewald contribution        =     -66.74766131 Ry
     one-center paw contrib.   =    -284.92454263 Ry

     convergence has been achieved in   8 iterations

     Forces acting on atoms (cartesian axes, Ry/au):

     atom    1 type  1   force =    -0.02003299    0.00250143   -0.00250143
     atom    2 type  1   force =    -0.00606222   -0.00272344    0.00272344
     atom    3 type  1   force =    -0.00297280   -0.00293606   -0.00294002
     atom    4 type  1   force =    -0.00297280    0.00294002    0.00293606
     atom    5 type  1   force =     0.00297280    0.00293606    0.00294002
     atom    6 type  1   force =     0.00297280   -0.00294002   -0.00293606
     atom    7 type  1   force =     0.02003299   -0.00250143    0.00250143
     atom    8 type  1   force =     0.00606222    0.00272344   -0.00272344

     Total force =     0.032175     Total SCF correction =     0.000015


     Computing stress (Cartesian axis) and pressure

          total   stress  (Ry/bohr**3)                   (kbar)     P=    0.32
   0.00000023  -0.00000030   0.00000030          0.03     -0.04      0.04
  -0.00000030   0.00000320   0.00003762         -0.04      0.47      5.53
   0.00000030   0.00003762   0.00000320          0.04      5.53      0.47


     init_run     :      1.22s CPU      1.24s WALL (       1 calls)
     electrons    :     15.75s CPU     15.86s WALL (       1 calls)
     forces       :      0.37s CPU      0.37s WALL (       1 calls)
     stress       :      0.77s CPU      0.77s WALL (       1 calls)

     Called by init_run:
     wfcinit      :      0.93s CPU      0.93s WALL (       1 calls)
     potinit      :      0.13s CPU      0.13s WALL (       1 calls)

     Called by electrons:
     c_bands      :     12.02s CPU     12.12s WALL (       9 calls)
     sum_band     :      2.69s CPU      2.71s WALL (       9 calls)
     v_of_rho     :      0.30s CPU      0.30s WALL (       9 calls)
     newd         :      0.13s CPU      0.14s WALL (       9 calls)
     PAW_pot      :      0.68s CPU      0.69s WALL (       9 calls)
     mix_rho      :      0.03s CPU      0.03s WALL (       9 calls)

     Called by c_bands:
     init_us_2    :      0.38s CPU      0.46s WALL (     420 calls)
     cegterg      :     11.36s CPU     11.45s WALL (     180 calls)

     Called by sum_band:
     sum_band:bec :      0.00s CPU      0.00s WALL (     180 calls)
     addusdens    :      0.15s CPU      0.14s WALL (       9 calls)

     Called by *egterg:
     h_psi        :      9.92s CPU     10.02s WALL (     622 calls)
     s_psi        :      0.50s CPU      0.54s WALL (     622 calls)
     g_psi        :      0.06s CPU      0.04s WALL (     422 calls)
     cdiaghg      :      0.17s CPU      0.19s WALL (     582 calls)

     Called by h_psi:
     h_psi:pot    :      9.86s CPU      9.93s WALL (     622 calls)
     h_psi:calbec :      0.51s CPU      0.61s WALL (     622 calls)
     vloc_psi     :      8.82s CPU      8.88s WALL (     622 calls)
     add_vuspsi   :      0.54s CPU      0.44s WALL (     622 calls)

     General routines
     calbec       :      0.84s CPU      0.95s WALL (     902 calls)
     fft          :      0.13s CPU      0.14s WALL (     144 calls)
     fftw         :      8.24s CPU      8.35s WALL (   20216 calls)

     Parallel routines
     fft_scatt_xy :      0.74s CPU      0.82s WALL (   20360 calls)
     fft_scatt_yz :      1.68s CPU      1.83s WALL (   20360 calls)

     PWSCF        :    18.20s CPU        18.34s WALL


   This run was terminated on:  11:52:58  24Oct2021            

=------------------------------------------------------------------------------=
   JOB DONE.
=------------------------------------------------------------------------------=
Note: The following floating-point exceptions are signalling: IEEE_UNDERFLOW_FLAG IEEE_DENORMAL
