
     Program PWSCF v.6.2 (svn rev. 13949:13950) starts on 24Oct2021 at 11:52:21 

     This program is part of the open-source Quantum ESPRESSO suite
     for quantum simulation of materials; please cite
         "P. Giannozzi et al., J. Phys.:Condens. Matter 21 395502 (2009);
         "P. Giannozzi et al., J. Phys.:Condens. Matter 29 465901 (2017);
          URL http://www.quantum-espresso.org", 
     in publications or presentations arising from this work. More details at
     http://www.quantum-espresso.org/quote

     Parallel version (MPI), running on     4 processors

     MPI processes distributed on     1 nodes
     R & G space division:  proc/nbgrp/npool/nimage =       4
     Reading input from headeradd_supercell-00015.in

     Current dimensions of program PWSCF are:
     Max number of different atomic species (ntypx) = 10
     Max number of k-points (npk) =  40000
     Max angular momentum in pseudopotentials (lmaxx) =  3
     Message from routine iosys:
     minimal I/O required, wf_collect reset to FALSE
               file Si.pbe-n-kjpaw_psl.0.1.UPF: wavefunction(s)  3S renormalized

     Subspace diagonalization in iterative solution of the eigenvalue problem:
     a serial algorithm will be used


     Parallelization info
     --------------------
     sticks:   dense  smooth     PW     G-vecs:    dense   smooth      PW
     Min         593     593    164                21816    21816    3132
     Max         595     595    165                21819    21819    3135
     Sum        2377    2377    657                87271    87271   12533



     bravais-lattice index     =            0
     lattice parameter (alat)  =      10.3296  a.u.
     unit-cell volume          =    1102.1598 (a.u.)^3
     number of atoms/cell      =            8
     number of atomic types    =            1
     number of electrons       =        32.00
     number of Kohn-Sham states=           16
     kinetic-energy cutoff     =      70.0000  Ry
     charge density cutoff     =     280.0000  Ry
     convergence threshold     =      1.0E-09
     mixing beta               =       0.7000
     number of iterations used =            8  plain     mixing
     Exchange-correlation      =  SLA  PW   PBX  PBC ( 1  4  3  4 0 0)

     celldm(1)=  10.329553  celldm(2)=   0.000000  celldm(3)=   0.000000
     celldm(4)=   0.000000  celldm(5)=   0.000000  celldm(6)=   0.000000

     crystal axes: (cart. coord. in units of alat)
               a(1) = (   1.000000   0.000000   0.000000 )  
               a(2) = (   0.000000   1.000000   0.000000 )  
               a(3) = (   0.000000   0.000000   1.000000 )  

     reciprocal axes: (cart. coord. in units 2 pi/alat)
               b(1) = (  1.000000  0.000000  0.000000 )  
               b(2) = (  0.000000  1.000000  0.000000 )  
               b(3) = (  0.000000  0.000000  1.000000 )  


     PseudoPot. # 1 for Si read from file:
     /home/uezono/pseudo/Si.pbe-n-kjpaw_psl.0.1.UPF
     MD5 check sum: 0810ef13ebffcf5dbabd57b297315270
     Pseudo is Projector augmented-wave + core cor, Zval =  4.0
     Generated using "atomic" code by A. Dal Corso  v.5.0.2 svn rev. 9415
     Shape of augmentation charge: PSQ
     Using radial grid of 1141 points,  4 beta functions with: 
                l(1) =   0
                l(2) =   0
                l(3) =   1
                l(4) =   1
     Q(r) pseudized with 0 coefficients 


     atomic species   valence    mass     pseudopotential
        Si             4.00    28.08550     Si( 1.00)

      2 Sym. Ops. (no inversion) found ( 1 have fractional translation)



   Cartesian axes

     site n.     atom                  positions (alat units)
         1           Si  tau(   1) = (   0.8808086   0.8750000   0.8750000  )
         2           Si  tau(   2) = (   0.8750000   0.3750000   0.3750000  )
         3           Si  tau(   3) = (   0.3750000   0.8750000   0.3750000  )
         4           Si  tau(   4) = (   0.3750000   0.3750000   0.8750000  )
         5           Si  tau(   5) = (   0.1250000   0.1250000   0.1250000  )
         6           Si  tau(   6) = (   0.1250000   0.6250000   0.6250000  )
         7           Si  tau(   7) = (   0.6308086   0.1250000   0.6250000  )
         8           Si  tau(   8) = (   0.6250000   0.6250000   0.1250000  )

     number of k points=    20
                       cart. coord. in units 2pi/alat
        k(    1) = (   0.1250000   0.1250000   0.1250000), wk =   0.1250000
        k(    2) = (   0.1250000   0.1250000   0.3750000), wk =   0.1250000
        k(    3) = (   0.1250000   0.3750000   0.3750000), wk =   0.1250000
        k(    4) = (   0.3750000   0.3750000   0.3750000), wk =   0.1250000
        k(    5) = (  -0.1250000   0.1250000  -0.1250000), wk =   0.0625000
        k(    6) = (   0.1250000   0.1250000  -0.1250000), wk =   0.0625000
        k(    7) = (  -0.1250000   0.1250000  -0.3750000), wk =   0.1250000
        k(    8) = (   0.1250000  -0.1250000  -0.3750000), wk =   0.1250000
        k(    9) = (   0.1250000   0.1250000  -0.3750000), wk =   0.1250000
        k(   10) = (   0.3750000  -0.1250000   0.1250000), wk =   0.0625000
        k(   11) = (  -0.3750000  -0.1250000  -0.1250000), wk =   0.1250000
        k(   12) = (   0.3750000   0.1250000  -0.1250000), wk =   0.0625000
        k(   13) = (  -0.1250000   0.3750000  -0.3750000), wk =   0.0625000
        k(   14) = (   0.3750000   0.1250000  -0.3750000), wk =   0.1250000
        k(   15) = (  -0.3750000  -0.1250000  -0.3750000), wk =   0.1250000
        k(   16) = (   0.3750000  -0.1250000   0.3750000), wk =   0.1250000
        k(   17) = (  -0.3750000   0.1250000   0.3750000), wk =   0.1250000
        k(   18) = (   0.1250000   0.3750000  -0.3750000), wk =   0.0625000
        k(   19) = (  -0.3750000   0.3750000  -0.3750000), wk =   0.0625000
        k(   20) = (   0.3750000   0.3750000  -0.3750000), wk =   0.0625000

     Dense  grid:    87271 G-vectors     FFT dimensions: (  60,  60,  60)

     Estimated max dynamical RAM per process >      51.85 MB

     Estimated total dynamical RAM >     207.41 MB

     Initial potential from superposition of free atoms

     starting charge   31.99553, renormalised to   32.00000
     Starting wfc are   32 randomized atomic wfcs
     Checking if some PAW data can be deallocated... 

     total cpu time spent up to now is        1.3 secs

     Self-consistent Calculation

     iteration #  1     ecut=    70.00 Ry     beta= 0.70
     Davidson diagonalization with overlap
     ethr =  1.00E-02,  avg # of iterations =  2.0

     Threshold (ethr) on eigenvalues was too large:
     Diagonalizing with lowered threshold

     Davidson diagonalization with overlap
     ethr =  6.98E-04,  avg # of iterations =  1.0

     total cpu time spent up to now is        4.1 secs

     total energy              =    -373.80724574 Ry
     Harris-Foulkes estimate   =    -373.85932965 Ry
     estimated scf accuracy    <       0.22081284 Ry

     iteration #  2     ecut=    70.00 Ry     beta= 0.70
     Davidson diagonalization with overlap
     ethr =  6.90E-04,  avg # of iterations =  1.0

     total cpu time spent up to now is        5.4 secs

     total energy              =    -373.81517573 Ry
     Harris-Foulkes estimate   =    -373.81571920 Ry
     estimated scf accuracy    <       0.00978018 Ry

     iteration #  3     ecut=    70.00 Ry     beta= 0.70
     Davidson diagonalization with overlap
     ethr =  3.06E-05,  avg # of iterations =  2.4

     total cpu time spent up to now is        7.1 secs

     total energy              =    -373.81627023 Ry
     Harris-Foulkes estimate   =    -373.81634167 Ry
     estimated scf accuracy    <       0.00020876 Ry

     iteration #  4     ecut=    70.00 Ry     beta= 0.70
     Davidson diagonalization with overlap
     ethr =  6.52E-07,  avg # of iterations =  3.2

     total cpu time spent up to now is        9.4 secs

     total energy              =    -373.81637461 Ry
     Harris-Foulkes estimate   =    -373.81637904 Ry
     estimated scf accuracy    <       0.00001106 Ry

     iteration #  5     ecut=    70.00 Ry     beta= 0.70
     Davidson diagonalization with overlap
     ethr =  3.46E-08,  avg # of iterations =  3.1

     total cpu time spent up to now is       11.4 secs

     total energy              =    -373.81637822 Ry
     Harris-Foulkes estimate   =    -373.81637863 Ry
     estimated scf accuracy    <       0.00000076 Ry

     iteration #  6     ecut=    70.00 Ry     beta= 0.70
     Davidson diagonalization with overlap
     ethr =  2.39E-09,  avg # of iterations =  3.0

     total cpu time spent up to now is       13.5 secs

     total energy              =    -373.81637844 Ry
     Harris-Foulkes estimate   =    -373.81637850 Ry
     estimated scf accuracy    <       0.00000006 Ry

     iteration #  7     ecut=    70.00 Ry     beta= 0.70
     Davidson diagonalization with overlap
     ethr =  1.90E-10,  avg # of iterations =  2.3

     total cpu time spent up to now is       15.3 secs

     total energy              =    -373.81637843 Ry
     Harris-Foulkes estimate   =    -373.81637845 Ry
     estimated scf accuracy    <          7.3E-09 Ry

     iteration #  8     ecut=    70.00 Ry     beta= 0.70
     Davidson diagonalization with overlap
     ethr =  2.29E-11,  avg # of iterations =  2.8

     total cpu time spent up to now is       17.2 secs

     End of self-consistent calculation

          k = 0.1250 0.1250 0.1250 ( 10891 PWs)   bands (ev):

    -5.6259  -2.6307  -2.5898  -2.5489  -0.8176  -0.7803  -0.7434   2.6206
     2.6392   2.6580   3.3564   3.3717   3.3883   4.4145   5.7234   5.7242

          k = 0.1250 0.1250 0.3750 ( 10909 PWs)   bands (ev):

    -5.0972  -4.0649  -2.4217  -2.4204  -0.8790  -0.8773   1.0853   2.0231
     2.0323   2.7979   3.0998   3.1102   3.3912   3.8403   4.7150   4.7790

          k = 0.1250 0.3750 0.3750 ( 10902 PWs)   bands (ev):

    -4.5976  -3.6806  -3.6149  -2.9593  -0.5761   0.2007   0.2207   1.4164
     2.0900   2.7269   2.7602   3.7350   4.0616   4.1518   4.1683   5.2431

          k = 0.3750 0.3750 0.3750 ( 10927 PWs)   bands (ev):

    -4.1646  -3.4974  -3.4549  -3.4133  -0.6913  -0.6628  -0.6339   0.1270
     3.7140   3.7560   3.7952   4.4511   4.4715   4.4911   4.9369   4.9372

          k =-0.1250 0.1250-0.1250 ( 10891 PWs)   bands (ev):

    -5.6260  -2.6290  -2.5902  -2.5500  -0.8273  -0.7807  -0.7333   2.6188
     2.6401   2.6604   3.3697   3.3723   3.3725   4.4132   5.7246   5.7253

          k = 0.1250 0.1250-0.1250 ( 10891 PWs)   bands (ev):

    -5.6260  -2.5914  -2.5902  -2.5894  -0.7807  -0.7806  -0.7784   2.6272
     2.6400   2.6523   3.3563   3.3722   3.3862   4.4138   5.7235   5.7247

          k =-0.1250 0.1250-0.3750 ( 10909 PWs)   bands (ev):

    -5.0973  -4.0646  -2.4357  -2.4067  -0.8950  -0.8610   1.0848   2.0194
     2.0387   2.7955   3.0974   3.1157   3.3860   3.8404   4.7159   4.7805

          k = 0.1250-0.1250-0.3750 ( 10909 PWs)   bands (ev):

    -5.0973  -4.0647  -2.4357  -2.4067  -0.8949  -0.8608   1.0846   2.0179
     2.0374   2.7987   3.0956   3.1142   3.3903   3.8409   4.7155   4.7787

          k = 0.1250 0.1250-0.3750 ( 10909 PWs)   bands (ev):

    -5.0974  -4.0644  -2.4220  -2.4209  -0.8787  -0.8770   1.0843   2.0248
     2.0338   2.7962   3.1015   3.1113   3.3868   3.8401   4.7151   4.7802

          k = 0.3750-0.1250 0.1250 ( 10909 PWs)   bands (ev):

    -5.0981  -4.0629  -2.4221  -2.4213  -0.8788  -0.8781   1.0865   2.0286
     2.0291   2.7954   3.1075   3.1080   3.3865   3.8351   4.7182   4.7791

          k =-0.3750-0.1250-0.1250 ( 10909 PWs)   bands (ev):

    -5.0981  -4.0627  -2.4567  -2.3857  -0.8877  -0.8703   1.0860   2.0148
     2.0436   2.7938   3.1015   3.1136   3.3875   3.8383   4.7150   4.7797

          k = 0.3750 0.1250-0.1250 ( 10909 PWs)   bands (ev):

    -5.0983  -4.0624  -2.4222  -2.4220  -0.8781  -0.8778   1.0853   2.0289
     2.0291   2.7964   3.1075   3.1077   3.3863   3.8354   4.7180   4.7786

          k =-0.1250 0.3750-0.3750 ( 10902 PWs)   bands (ev):

    -4.5980  -3.6484  -3.6477  -2.9583  -0.5764   0.2103   0.2115   1.4179
     2.0877   2.7435   2.7437   3.7352   4.1135   4.1153   4.1500   5.2464

          k = 0.3750 0.1250-0.3750 ( 10902 PWs)   bands (ev):

    -4.5990  -3.6488  -3.6459  -2.9578  -0.5774   0.2094   0.2111   1.4192
     2.0881   2.7373   2.7480   3.7318   4.1057   4.1211   4.1596   5.2442

          k =-0.3750-0.1250-0.3750 ( 10902 PWs)   bands (ev):

    -4.5985  -3.6743  -3.6213  -2.9570  -0.5771   0.1727   0.2481   1.4176
     2.0864   2.7275   2.7608   3.7327   4.0967   4.1285   4.1597   5.2442

          k = 0.3750-0.1250 0.3750 ( 10902 PWs)   bands (ev):

    -4.5987  -3.6738  -3.6208  -2.9582  -0.5767   0.1728   0.2481   1.4182
     2.0876   2.7262   2.7595   3.7306   4.0971   4.1297   4.1606   5.2447

          k =-0.3750 0.1250 0.3750 ( 10902 PWs)   bands (ev):

    -4.5987  -3.6497  -3.6463  -2.9565  -0.5775   0.2096   0.2113   1.4181
     2.0864   2.7384   2.7490   3.7336   4.1066   4.1208   4.1577   5.2439

          k = 0.1250 0.3750-0.3750 ( 10902 PWs)   bands (ev):

    -4.5981  -3.6481  -3.6477  -2.9584  -0.5766   0.2103   0.2110   1.4184
     2.0883   2.7436   2.7441   3.7354   4.1123   4.1140   4.1513   5.2462

          k =-0.3750 0.3750-0.3750 ( 10927 PWs)   bands (ev):

    -4.1656  -3.4739  -3.4557  -3.4355  -0.6852  -0.6624  -0.6396   0.1269
     3.7315   3.7554   3.7796   4.4613   4.4707   4.4714   4.9381   4.9455

          k = 0.3750 0.3750-0.3750 ( 10927 PWs)   bands (ev):

    -4.1660  -3.4562  -3.4557  -3.4527  -0.6641  -0.6624  -0.6619   0.1280
     3.7393   3.7554   3.7734   4.4437   4.4709   4.4899   4.9364   4.9438

     highest occupied level (ev):     5.7253

!    total energy              =    -373.81637843 Ry
     Harris-Foulkes estimate   =    -373.81637843 Ry
     estimated scf accuracy    <          3.2E-10 Ry

     total all-electron energy =     -4640.583323 Ry

     The total energy is the sum of the following terms:

     one-electron contribution =      22.32296968 Ry
     hartree contribution      =       4.46389465 Ry
     xc contribution           =     -48.93018130 Ry
     ewald contribution        =     -66.74858368 Ry
     one-center paw contrib.   =    -284.92447778 Ry

     convergence has been achieved in   8 iterations

     Forces acting on atoms (cartesian axes, Ry/au):

     atom    1 type  1   force =    -0.01223621   -0.00271583    0.00271583
     atom    2 type  1   force =     0.00197010    0.00294304   -0.00294304
     atom    3 type  1   force =     0.00507172    0.00271626    0.00272061
     atom    4 type  1   force =     0.00507172   -0.00272061   -0.00271626
     atom    5 type  1   force =     0.00518851    0.00294839    0.00294399
     atom    6 type  1   force =     0.00518851   -0.00294399   -0.00294839
     atom    7 type  1   force =    -0.01211918   -0.00294835    0.00294835
     atom    8 type  1   force =     0.00186484    0.00272110   -0.00272110

     Total force =     0.023190     Total SCF correction =     0.000007


     Computing stress (Cartesian axis) and pressure

          total   stress  (Ry/bohr**3)                   (kbar)     P=    0.24
   0.00000032   0.00000028  -0.00000028          0.05      0.04     -0.04
   0.00000028   0.00000232   0.00000051          0.04      0.34      0.08
  -0.00000028   0.00000051   0.00000232         -0.04      0.08      0.34


     init_run     :      1.16s CPU      1.17s WALL (       1 calls)
     electrons    :     15.80s CPU     15.90s WALL (       1 calls)
     forces       :      0.36s CPU      0.37s WALL (       1 calls)
     stress       :      0.80s CPU      0.82s WALL (       1 calls)

     Called by init_run:
     wfcinit      :      0.88s CPU      0.88s WALL (       1 calls)
     potinit      :      0.12s CPU      0.12s WALL (       1 calls)

     Called by electrons:
     c_bands      :     12.19s CPU     12.26s WALL (       9 calls)
     sum_band     :      2.57s CPU      2.59s WALL (       9 calls)
     v_of_rho     :      0.29s CPU      0.29s WALL (       9 calls)
     newd         :      0.14s CPU      0.14s WALL (       9 calls)
     PAW_pot      :      0.69s CPU      0.69s WALL (       9 calls)
     mix_rho      :      0.03s CPU      0.04s WALL (       9 calls)

     Called by c_bands:
     init_us_2    :      0.41s CPU      0.45s WALL (     420 calls)
     cegterg      :     11.50s CPU     11.59s WALL (     180 calls)

     Called by sum_band:
     sum_band:bec :      0.00s CPU      0.00s WALL (     180 calls)
     addusdens    :      0.14s CPU      0.14s WALL (       9 calls)

     Called by *egterg:
     h_psi        :     10.02s CPU     10.10s WALL (     614 calls)
     s_psi        :      0.57s CPU      0.55s WALL (     614 calls)
     g_psi        :      0.04s CPU      0.04s WALL (     414 calls)
     cdiaghg      :      0.19s CPU      0.19s WALL (     574 calls)

     Called by h_psi:
     h_psi:pot    :      9.94s CPU     10.01s WALL (     614 calls)
     h_psi:calbec :      0.62s CPU      0.62s WALL (     614 calls)
     vloc_psi     :      8.92s CPU      8.93s WALL (     614 calls)
     add_vuspsi   :      0.40s CPU      0.46s WALL (     614 calls)

     General routines
     calbec       :      0.91s CPU      0.94s WALL (     894 calls)
     fft          :      0.11s CPU      0.14s WALL (     144 calls)
     fftw         :      8.49s CPU      8.42s WALL (   20176 calls)

     Parallel routines
     fft_scatt_xy :      0.80s CPU      0.82s WALL (   20320 calls)
     fft_scatt_yz :      1.95s CPU      1.85s WALL (   20320 calls)

     PWSCF        :    18.22s CPU        18.35s WALL


   This run was terminated on:  11:52:39  24Oct2021            

=------------------------------------------------------------------------------=
   JOB DONE.
=------------------------------------------------------------------------------=
Note: The following floating-point exceptions are signalling: IEEE_UNDERFLOW_FLAG IEEE_DENORMAL
