
     Program PWSCF v.6.2 (svn rev. 13949:13950) starts on 24Oct2021 at 11:49:15 

     This program is part of the open-source Quantum ESPRESSO suite
     for quantum simulation of materials; please cite
         "P. Giannozzi et al., J. Phys.:Condens. Matter 21 395502 (2009);
         "P. Giannozzi et al., J. Phys.:Condens. Matter 29 465901 (2017);
          URL http://www.quantum-espresso.org", 
     in publications or presentations arising from this work. More details at
     http://www.quantum-espresso.org/quote

     Parallel version (MPI), running on     4 processors

     MPI processes distributed on     1 nodes
     R & G space division:  proc/nbgrp/npool/nimage =       4
     Reading input from headeradd_supercell-00006.in

     Current dimensions of program PWSCF are:
     Max number of different atomic species (ntypx) = 10
     Max number of k-points (npk) =  40000
     Max angular momentum in pseudopotentials (lmaxx) =  3
     Message from routine iosys:
     minimal I/O required, wf_collect reset to FALSE
               file Si.pbe-n-kjpaw_psl.0.1.UPF: wavefunction(s)  3S renormalized

     Subspace diagonalization in iterative solution of the eigenvalue problem:
     a serial algorithm will be used


     Parallelization info
     --------------------
     sticks:   dense  smooth     PW     G-vecs:    dense   smooth      PW
     Min         593     593    164                21816    21816    3132
     Max         595     595    165                21819    21819    3135
     Sum        2377    2377    657                87271    87271   12533



     bravais-lattice index     =            0
     lattice parameter (alat)  =      10.3296  a.u.
     unit-cell volume          =    1102.1598 (a.u.)^3
     number of atoms/cell      =            8
     number of atomic types    =            1
     number of electrons       =        32.00
     number of Kohn-Sham states=           16
     kinetic-energy cutoff     =      70.0000  Ry
     charge density cutoff     =     280.0000  Ry
     convergence threshold     =      1.0E-09
     mixing beta               =       0.7000
     number of iterations used =            8  plain     mixing
     Exchange-correlation      =  SLA  PW   PBX  PBC ( 1  4  3  4 0 0)

     celldm(1)=  10.329553  celldm(2)=   0.000000  celldm(3)=   0.000000
     celldm(4)=   0.000000  celldm(5)=   0.000000  celldm(6)=   0.000000

     crystal axes: (cart. coord. in units of alat)
               a(1) = (   1.000000   0.000000   0.000000 )  
               a(2) = (   0.000000   1.000000   0.000000 )  
               a(3) = (   0.000000   0.000000   1.000000 )  

     reciprocal axes: (cart. coord. in units 2 pi/alat)
               b(1) = (  1.000000  0.000000  0.000000 )  
               b(2) = (  0.000000  1.000000  0.000000 )  
               b(3) = (  0.000000  0.000000  1.000000 )  


     PseudoPot. # 1 for Si read from file:
     /home/uezono/pseudo/Si.pbe-n-kjpaw_psl.0.1.UPF
     MD5 check sum: 0810ef13ebffcf5dbabd57b297315270
     Pseudo is Projector augmented-wave + core cor, Zval =  4.0
     Generated using "atomic" code by A. Dal Corso  v.5.0.2 svn rev. 9415
     Shape of augmentation charge: PSQ
     Using radial grid of 1141 points,  4 beta functions with: 
                l(1) =   0
                l(2) =   0
                l(3) =   1
                l(4) =   1
     Q(r) pseudized with 0 coefficients 


     atomic species   valence    mass     pseudopotential
        Si             4.00    28.08550     Si( 1.00)

     No symmetry found



   Cartesian axes

     site n.     atom                  positions (alat units)
         1           Si  tau(   1) = (   0.8808086   0.8750000   0.8750000  )
         2           Si  tau(   2) = (   0.8750000   0.3750000   0.3750000  )
         3           Si  tau(   3) = (   0.3791073   0.8791073   0.3750000  )
         4           Si  tau(   4) = (   0.3750000   0.3750000   0.8750000  )
         5           Si  tau(   5) = (   0.1250000   0.1250000   0.1250000  )
         6           Si  tau(   6) = (   0.1250000   0.6250000   0.6250000  )
         7           Si  tau(   7) = (   0.6250000   0.1250000   0.6250000  )
         8           Si  tau(   8) = (   0.6250000   0.6250000   0.1250000  )

     number of k points=    32
                       cart. coord. in units 2pi/alat
        k(    1) = (   0.1250000   0.1250000   0.1250000), wk =   0.0625000
        k(    2) = (   0.1250000   0.1250000   0.3750000), wk =   0.0625000
        k(    3) = (   0.1250000   0.3750000   0.3750000), wk =   0.0625000
        k(    4) = (   0.3750000   0.3750000   0.3750000), wk =   0.0625000
        k(    5) = (  -0.1250000  -0.1250000   0.1250000), wk =   0.0625000
        k(    6) = (  -0.1250000   0.1250000  -0.1250000), wk =   0.0625000
        k(    7) = (   0.1250000  -0.1250000  -0.1250000), wk =   0.0625000
        k(    8) = (  -0.1250000  -0.1250000   0.3750000), wk =   0.0625000
        k(    9) = (  -0.1250000   0.1250000  -0.3750000), wk =   0.0625000
        k(   10) = (   0.1250000  -0.1250000  -0.3750000), wk =   0.0625000
        k(   11) = (   0.3750000  -0.1250000   0.1250000), wk =   0.0625000
        k(   12) = (  -0.3750000  -0.1250000  -0.1250000), wk =   0.0625000
        k(   13) = (   0.3750000   0.1250000  -0.1250000), wk =   0.0625000
        k(   14) = (  -0.3750000   0.1250000   0.1250000), wk =   0.0625000
        k(   15) = (  -0.1250000   0.3750000   0.1250000), wk =   0.0625000
        k(   16) = (  -0.1250000  -0.3750000  -0.1250000), wk =   0.0625000
        k(   17) = (   0.1250000   0.3750000  -0.1250000), wk =   0.0625000
        k(   18) = (   0.1250000  -0.3750000   0.1250000), wk =   0.0625000
        k(   19) = (  -0.1250000  -0.3750000   0.3750000), wk =   0.0625000
        k(   20) = (  -0.1250000   0.3750000  -0.3750000), wk =   0.0625000
        k(   21) = (   0.1250000  -0.3750000  -0.3750000), wk =   0.0625000
        k(   22) = (   0.3750000   0.1250000  -0.3750000), wk =   0.0625000
        k(   23) = (  -0.3750000  -0.1250000  -0.3750000), wk =   0.0625000
        k(   24) = (   0.3750000  -0.1250000   0.3750000), wk =   0.0625000
        k(   25) = (  -0.3750000   0.1250000   0.3750000), wk =   0.0625000
        k(   26) = (   0.3750000  -0.3750000   0.1250000), wk =   0.0625000
        k(   27) = (  -0.3750000  -0.3750000  -0.1250000), wk =   0.0625000
        k(   28) = (   0.3750000   0.3750000  -0.1250000), wk =   0.0625000
        k(   29) = (  -0.3750000   0.3750000   0.1250000), wk =   0.0625000
        k(   30) = (  -0.3750000  -0.3750000   0.3750000), wk =   0.0625000
        k(   31) = (  -0.3750000   0.3750000  -0.3750000), wk =   0.0625000
        k(   32) = (   0.3750000  -0.3750000  -0.3750000), wk =   0.0625000

     Dense  grid:    87271 G-vectors     FFT dimensions: (  60,  60,  60)

     Estimated max dynamical RAM per process >      59.84 MB

     Estimated total dynamical RAM >     239.35 MB

     Initial potential from superposition of free atoms

     starting charge   31.99553, renormalised to   32.00000
     Starting wfc are   32 randomized atomic wfcs
     Checking if some PAW data can be deallocated... 

     total cpu time spent up to now is        1.7 secs

     Self-consistent Calculation

     iteration #  1     ecut=    70.00 Ry     beta= 0.70
     Davidson diagonalization with overlap
     ethr =  1.00E-02,  avg # of iterations =  2.0

     Threshold (ethr) on eigenvalues was too large:
     Diagonalizing with lowered threshold

     Davidson diagonalization with overlap
     ethr =  6.98E-04,  avg # of iterations =  1.0

     total cpu time spent up to now is        5.9 secs

     total energy              =    -373.80704805 Ry
     Harris-Foulkes estimate   =    -373.85918368 Ry
     estimated scf accuracy    <       0.22081526 Ry

     iteration #  2     ecut=    70.00 Ry     beta= 0.70
     Davidson diagonalization with overlap
     ethr =  6.90E-04,  avg # of iterations =  1.0

     total cpu time spent up to now is        7.7 secs

     total energy              =    -373.81498014 Ry
     Harris-Foulkes estimate   =    -373.81552644 Ry
     estimated scf accuracy    <       0.00978400 Ry

     iteration #  3     ecut=    70.00 Ry     beta= 0.70
     Davidson diagonalization with overlap
     ethr =  3.06E-05,  avg # of iterations =  2.2

     total cpu time spent up to now is        9.9 secs

     total energy              =    -373.81607296 Ry
     Harris-Foulkes estimate   =    -373.81614395 Ry
     estimated scf accuracy    <       0.00020809 Ry

     iteration #  4     ecut=    70.00 Ry     beta= 0.70
     Davidson diagonalization with overlap
     ethr =  6.50E-07,  avg # of iterations =  3.2

     total cpu time spent up to now is       12.7 secs

     total energy              =    -373.81617951 Ry
     Harris-Foulkes estimate   =    -373.81618436 Ry
     estimated scf accuracy    <       0.00001158 Ry

     iteration #  5     ecut=    70.00 Ry     beta= 0.70
     Davidson diagonalization with overlap
     ethr =  3.62E-08,  avg # of iterations =  3.1

     total cpu time spent up to now is       15.3 secs

     total energy              =    -373.81618328 Ry
     Harris-Foulkes estimate   =    -373.81618390 Ry
     estimated scf accuracy    <       0.00000125 Ry

     iteration #  6     ecut=    70.00 Ry     beta= 0.70
     Davidson diagonalization with overlap
     ethr =  3.92E-09,  avg # of iterations =  2.6

     total cpu time spent up to now is       17.8 secs

     total energy              =    -373.81618361 Ry
     Harris-Foulkes estimate   =    -373.81618366 Ry
     estimated scf accuracy    <       0.00000005 Ry

     iteration #  7     ecut=    70.00 Ry     beta= 0.70
     Davidson diagonalization with overlap
     ethr =  1.69E-10,  avg # of iterations =  2.9

     total cpu time spent up to now is       20.4 secs

     total energy              =    -373.81618361 Ry
     Harris-Foulkes estimate   =    -373.81618363 Ry
     estimated scf accuracy    <          5.6E-09 Ry

     iteration #  8     ecut=    70.00 Ry     beta= 0.70
     Davidson diagonalization with overlap
     ethr =  1.74E-11,  avg # of iterations =  2.8

     total cpu time spent up to now is       23.0 secs

     End of self-consistent calculation

          k = 0.1250 0.1250 0.1250 ( 10891 PWs)   bands (ev):

    -5.6251  -2.6281  -2.5881  -2.5653  -0.8103  -0.7673  -0.7379   2.5999
     2.6239   2.6398   3.3693   3.3848   3.3972   4.3737   5.7138   5.7806

          k = 0.1250 0.1250 0.3750 ( 10909 PWs)   bands (ev):

    -5.0950  -4.0688  -2.4353  -2.4115  -0.8909  -0.8547   1.1168   2.0084
     2.0200   2.7560   3.1052   3.1271   3.3522   3.8423   4.7094   4.8321

          k = 0.1250 0.3750 0.3750 ( 10902 PWs)   bands (ev):

    -4.5919  -3.6690  -3.6474  -2.9432  -0.6068   0.2336   0.2642   1.3765
     2.0722   2.7296   2.7479   3.7370   4.0725   4.0963   4.1865   5.2893

          k = 0.3750 0.3750 0.3750 ( 10927 PWs)   bands (ev):

    -4.1540  -3.4880  -3.4601  -3.4387  -0.6839  -0.6431  -0.6097   0.0905
     3.6946   3.7269   3.7517   4.4736   4.4938   4.5118   4.9191   4.9797

          k =-0.1250-0.1250 0.1250 ( 10891 PWs)   bands (ev):

    -5.6264  -2.6166  -2.5914  -2.5526  -0.8224  -0.7937  -0.7498   2.6399
     2.6556   2.6808   3.3465   3.3589   3.3748   4.4524   5.6671   5.7347

          k =-0.1250 0.1250-0.1250 ( 10891 PWs)   bands (ev):

    -5.6260  -2.6216  -2.5814  -2.5639  -0.8157  -0.7888  -0.7467   2.6321
     2.6411   2.6699   3.3418   3.3758   3.3843   4.4288   5.6653   5.7643

          k = 0.1250-0.1250-0.1250 ( 10891 PWs)   bands (ev):

    -5.6254  -2.6180  -2.5983  -2.5592  -0.8136  -0.7720  -0.7447   2.6099
     2.6385   2.6479   3.3598   3.3692   3.4023   4.3962   5.6862   5.7818

          k =-0.1250-0.1250 0.3750 ( 10909 PWs)   bands (ev):

    -5.0992  -4.0601  -2.4325  -2.4085  -0.9007  -0.8649   1.0535   2.0363
     2.0487   2.8373   3.0860   3.1095   3.4227   3.8376   4.7100   4.7365

          k =-0.1250 0.1250-0.3750 ( 10909 PWs)   bands (ev):

    -5.0980  -4.0627  -2.4440  -2.3977  -0.9191  -0.8417   1.0719   2.0259
     2.0435   2.8122   3.0772   3.1288   3.4008   3.8405   4.7014   4.7737

          k = 0.1250-0.1250-0.3750 ( 10909 PWs)   bands (ev):

    -5.0962  -4.0663  -2.4451  -2.3991  -0.9145  -0.8380   1.0982   2.0142
     2.0318   2.7785   3.0859   3.1354   3.3716   3.8425   4.7050   4.8094

          k = 0.3750-0.1250 0.1250 ( 10909 PWs)   bands (ev):

    -5.0971  -4.0669  -2.4236  -2.4037  -0.9073  -0.8812   1.0997   2.0369
     2.0481   2.7955   3.0917   3.1091   3.4014   3.8131   4.6773   4.8207

          k =-0.3750-0.1250-0.1250 ( 10909 PWs)   bands (ev):

    -5.0959  -4.0646  -2.4399  -2.4207  -0.8729  -0.8477   1.0907   2.0029
     2.0117   2.7731   3.1114   3.1279   3.3510   3.8670   4.7450   4.7717

          k = 0.3750 0.1250-0.1250 ( 10909 PWs)   bands (ev):

    -5.0984  -4.0644  -2.4229  -2.4026  -0.9103  -0.8841   1.0815   2.0467
     2.0548   2.8192   3.0872   3.1029   3.4216   3.8115   4.6798   4.7906

          k =-0.3750 0.1250 0.1250 ( 10909 PWs)   bands (ev):

    -5.0972  -4.0620  -2.4394  -2.4195  -0.8757  -0.8506   1.0718   2.0100
     2.0211   2.7970   3.1060   3.1223   3.3723   3.8659   4.7336   4.7550

          k =-0.1250 0.3750 0.1250 ( 10909 PWs)   bands (ev):

    -5.0960  -4.0673  -2.4441  -2.3958  -0.9121  -0.8501   1.1089   2.0158
     2.0365   2.7715   3.0912   3.1298   3.3710   3.8300   4.6950   4.8297

          k =-0.1250-0.3750-0.1250 ( 10909 PWs)   bands (ev):

    -5.0955  -4.0663  -2.4506  -2.4030  -0.8979  -0.8363   1.1055   1.9989
     2.0248   2.7607   3.0976   3.1386   3.3518   3.8523   4.7218   4.8103

          k = 0.1250 0.3750-0.1250 ( 10909 PWs)   bands (ev):

    -5.0990  -4.0612  -2.4421  -2.3936  -0.9191  -0.8574   1.0645   2.0324
     2.0605   2.8274   3.0768   3.1173   3.4224   3.8268   4.6964   4.7608

          k = 0.1250-0.3750 0.1250 ( 10909 PWs)   bands (ev):

    -5.0985  -4.0601  -2.4484  -2.4013  -0.9050  -0.8432   1.0602   2.0215
     2.0417   2.8198   3.0857   3.1251   3.4004   3.8490   4.7108   4.7545

          k =-0.1250-0.3750 0.3750 ( 10902 PWs)   bands (ev):

    -4.6036  -3.6480  -3.6269  -2.9748  -0.5461   0.1570   0.1877   1.4592
     2.1033   2.7383   2.7574   3.7330   4.1167   4.1353   4.1572   5.1978

          k =-0.1250 0.3750-0.3750 ( 10902 PWs)   bands (ev):

    -4.6019  -3.6484  -3.6268  -2.9823  -0.5266   0.1592   0.1904   1.4449
     2.0902   2.7288   2.7455   3.7459   4.1204   4.1479   4.1620   5.1940

          k = 0.1250-0.3750-0.3750 ( 10902 PWs)   bands (ev):

    -4.5936  -3.6687  -3.6475  -2.9352  -0.6269   0.2310   0.2613   1.3912
     2.0857   2.7415   2.7581   3.7214   4.0682   4.0840   4.1844   5.2930

          k = 0.3750 0.1250-0.3750 ( 10902 PWs)   bands (ev):

    -4.6019  -3.6693  -3.6174  -2.9579  -0.5840   0.1551   0.2294   1.4496
     2.1079   2.7349   2.7754   3.7183   4.0982   4.1378   4.1397   5.2296

          k =-0.3750-0.1250-0.3750 ( 10902 PWs)   bands (ev):

    -4.5935  -3.6779  -3.6266  -2.9602  -0.5695   0.1919   0.2661   1.3865
     2.0683   2.7098   2.7498   3.7484   4.0943   4.1297   4.1690   5.2600

          k = 0.3750-0.1250 0.3750 ( 10902 PWs)   bands (ev):

    -4.5978  -3.6775  -3.6263  -2.9413  -0.6176   0.1858   0.2597   1.4218
     2.0999   2.7336   2.7793   3.7148   4.0620   4.1166   4.1652   5.2693

          k =-0.3750 0.1250 0.3750 ( 10902 PWs)   bands (ev):

    -4.5977  -3.6697  -3.6177  -2.9762  -0.5364   0.1612   0.2354   1.4150
     2.0751   2.7073   2.7521   3.7532   4.1102   4.1435   4.1689   5.2207

          k = 0.3750-0.3750 0.1250 ( 10902 PWs)   bands (ev):

    -4.5991  -3.6564  -3.6391  -2.9536  -0.5905   0.1815   0.2357   1.4287
     2.0966   2.7301   2.7710   3.7234   4.1019   4.1139   4.1544   5.2482

          k =-0.3750-0.3750-0.1250 ( 10902 PWs)   bands (ev):

    -4.5948  -3.6616  -3.6347  -2.9720  -0.5430   0.1936   0.2367   1.3930
     2.0647   2.7126   2.7360   3.7566   4.1206   4.1393   4.1606   5.2375

          k = 0.3750 0.3750-0.1250 ( 10902 PWs)   bands (ev):

    -4.6008  -3.6612  -3.6342  -2.9457  -0.6106   0.1848   0.2281   1.4425
     2.1102   2.7493   2.7730   3.7084   4.0917   4.1075   4.1533   5.2504

          k =-0.3750 0.3750 0.1250 ( 10902 PWs)   bands (ev):

    -4.5966  -3.6559  -3.6400  -2.9645  -0.5624   0.1857   0.2387   1.4082
     2.0778   2.7147   2.7558   3.7434   4.1158   4.1254   4.1571   5.2428

          k =-0.3750-0.3750 0.3750 ( 10927 PWs)   bands (ev):

    -4.1744  -3.4731  -3.4507  -3.4227  -0.7150  -0.6819  -0.6412   0.1625
     3.7589   3.7828   3.8176   4.4298   4.4454   4.4693   4.8963   4.9550

          k =-0.3750 0.3750-0.3750 ( 10927 PWs)   bands (ev):

    -4.1685  -3.4843  -3.4428  -3.4310  -0.7100  -0.6842  -0.6147   0.1417
     3.7474   3.7689   3.7865   4.4299   4.4716   4.4847   4.8883   4.9771

          k = 0.3750-0.3750-0.3750 ( 10927 PWs)   bands (ev):

    -4.1601  -3.4797  -3.4687  -3.4263  -0.7100  -0.6408  -0.6161   0.1119
     3.7219   3.7407   3.7631   4.4558   4.4722   4.5142   4.9005   4.9845

     highest occupied level (ev):     5.7818

!    total energy              =    -373.81618361 Ry
     Harris-Foulkes estimate   =    -373.81618361 Ry
     estimated scf accuracy    <          3.3E-10 Ry

     total all-electron energy =     -4640.583128 Ry

     The total energy is the sum of the following terms:

     one-electron contribution =      22.32390692 Ry
     hartree contribution      =       4.46337674 Ry
     xc contribution           =     -48.93018571 Ry
     ewald contribution        =     -66.74877539 Ry
     one-center paw contrib.   =    -284.92450618 Ry

     convergence has been achieved in   8 iterations

     Forces acting on atoms (cartesian axes, Ry/au):

     atom    1 type  1   force =    -0.01541404   -0.00148796   -0.00000400
     atom    2 type  1   force =    -0.00132009    0.00078375   -0.00000087
     atom    3 type  1   force =    -0.01036639   -0.01147270   -0.00061317
     atom    4 type  1   force =    -0.00038176    0.00078472   -0.00001122
     atom    5 type  1   force =     0.00495002    0.00375599    0.00298969
     atom    6 type  1   force =     0.00873845    0.00171233   -0.00668678
     atom    7 type  1   force =     0.00900974    0.00232568    0.00700093
     atom    8 type  1   force =     0.00478408    0.00359818   -0.00267458

     Total force =     0.028854     Total SCF correction =     0.000019


     Computing stress (Cartesian axis) and pressure

          total   stress  (Ry/bohr**3)                   (kbar)     P=    0.27
   0.00000093   0.00000072   0.00001348          0.14      0.11      1.98
   0.00000072   0.00000202   0.00003253          0.11      0.30      4.79
   0.00001348   0.00003253   0.00000263          1.98      4.79      0.39


     init_run     :      1.61s CPU      1.64s WALL (       1 calls)
     electrons    :     21.22s CPU     21.30s WALL (       1 calls)
     forces       :      0.43s CPU      0.44s WALL (       1 calls)
     stress       :      1.08s CPU      1.08s WALL (       1 calls)

     Called by init_run:
     wfcinit      :      1.34s CPU      1.35s WALL (       1 calls)
     potinit      :      0.11s CPU      0.12s WALL (       1 calls)

     Called by electrons:
     c_bands      :     16.92s CPU     16.98s WALL (       9 calls)
     sum_band     :      3.32s CPU      3.34s WALL (       9 calls)
     v_of_rho     :      0.27s CPU      0.27s WALL (       9 calls)
     newd         :      0.14s CPU      0.13s WALL (       9 calls)
     PAW_pot      :      0.65s CPU      0.66s WALL (       9 calls)
     mix_rho      :      0.04s CPU      0.03s WALL (       9 calls)

     Called by c_bands:
     init_us_2    :      0.83s CPU      0.78s WALL (     672 calls)
     cegterg      :     15.89s CPU     15.96s WALL (     288 calls)

     Called by sum_band:
     sum_band:bec :      0.00s CPU      0.00s WALL (     288 calls)
     addusdens    :      0.14s CPU      0.13s WALL (       9 calls)

     Called by *egterg:
     h_psi        :     13.64s CPU     13.77s WALL (     982 calls)
     s_psi        :      0.90s CPU      0.84s WALL (     982 calls)
     g_psi        :      0.07s CPU      0.07s WALL (     662 calls)
     cdiaghg      :      0.26s CPU      0.29s WALL (     918 calls)

     Called by h_psi:
     h_psi:pot    :     13.54s CPU     13.65s WALL (     982 calls)
     h_psi:calbec :      0.89s CPU      0.91s WALL (     982 calls)
     vloc_psi     :     11.98s CPU     12.05s WALL (     982 calls)
     add_vuspsi   :      0.66s CPU      0.69s WALL (     982 calls)

     General routines
     calbec       :      1.39s CPU      1.42s WALL (    1430 calls)
     fft          :      0.13s CPU      0.11s WALL (     144 calls)
     fftw         :     11.18s CPU     11.41s WALL (   32358 calls)

     Parallel routines
     fft_scatt_xy :      1.10s CPU      1.16s WALL (   32502 calls)
     fft_scatt_yz :      1.70s CPU      1.81s WALL (   32502 calls)

     PWSCF        :    24.42s CPU        24.54s WALL


   This run was terminated on:  11:49:40  24Oct2021            

=------------------------------------------------------------------------------=
   JOB DONE.
=------------------------------------------------------------------------------=
Note: The following floating-point exceptions are signalling: IEEE_UNDERFLOW_FLAG IEEE_DENORMAL
