
     Program PWSCF v.6.2 (svn rev. 13949:13950) starts on 24Oct2021 at 11:50:22 

     This program is part of the open-source Quantum ESPRESSO suite
     for quantum simulation of materials; please cite
         "P. Giannozzi et al., J. Phys.:Condens. Matter 21 395502 (2009);
         "P. Giannozzi et al., J. Phys.:Condens. Matter 29 465901 (2017);
          URL http://www.quantum-espresso.org", 
     in publications or presentations arising from this work. More details at
     http://www.quantum-espresso.org/quote

     Parallel version (MPI), running on     4 processors

     MPI processes distributed on     1 nodes
     R & G space division:  proc/nbgrp/npool/nimage =       4
     Reading input from headeradd_supercell-00009.in

     Current dimensions of program PWSCF are:
     Max number of different atomic species (ntypx) = 10
     Max number of k-points (npk) =  40000
     Max angular momentum in pseudopotentials (lmaxx) =  3
     Message from routine iosys:
     minimal I/O required, wf_collect reset to FALSE
               file Si.pbe-n-kjpaw_psl.0.1.UPF: wavefunction(s)  3S renormalized

     Subspace diagonalization in iterative solution of the eigenvalue problem:
     a serial algorithm will be used


     Parallelization info
     --------------------
     sticks:   dense  smooth     PW     G-vecs:    dense   smooth      PW
     Min         593     593    164                21816    21816    3132
     Max         595     595    165                21819    21819    3135
     Sum        2377    2377    657                87271    87271   12533



     bravais-lattice index     =            0
     lattice parameter (alat)  =      10.3296  a.u.
     unit-cell volume          =    1102.1598 (a.u.)^3
     number of atoms/cell      =            8
     number of atomic types    =            1
     number of electrons       =        32.00
     number of Kohn-Sham states=           16
     kinetic-energy cutoff     =      70.0000  Ry
     charge density cutoff     =     280.0000  Ry
     convergence threshold     =      1.0E-09
     mixing beta               =       0.7000
     number of iterations used =            8  plain     mixing
     Exchange-correlation      =  SLA  PW   PBX  PBC ( 1  4  3  4 0 0)

     celldm(1)=  10.329553  celldm(2)=   0.000000  celldm(3)=   0.000000
     celldm(4)=   0.000000  celldm(5)=   0.000000  celldm(6)=   0.000000

     crystal axes: (cart. coord. in units of alat)
               a(1) = (   1.000000   0.000000   0.000000 )  
               a(2) = (   0.000000   1.000000   0.000000 )  
               a(3) = (   0.000000   0.000000   1.000000 )  

     reciprocal axes: (cart. coord. in units 2 pi/alat)
               b(1) = (  1.000000  0.000000  0.000000 )  
               b(2) = (  0.000000  1.000000  0.000000 )  
               b(3) = (  0.000000  0.000000  1.000000 )  


     PseudoPot. # 1 for Si read from file:
     /home/uezono/pseudo/Si.pbe-n-kjpaw_psl.0.1.UPF
     MD5 check sum: 0810ef13ebffcf5dbabd57b297315270
     Pseudo is Projector augmented-wave + core cor, Zval =  4.0
     Generated using "atomic" code by A. Dal Corso  v.5.0.2 svn rev. 9415
     Shape of augmentation charge: PSQ
     Using radial grid of 1141 points,  4 beta functions with: 
                l(1) =   0
                l(2) =   0
                l(3) =   1
                l(4) =   1
     Q(r) pseudized with 0 coefficients 


     atomic species   valence    mass     pseudopotential
        Si             4.00    28.08550     Si( 1.00)

     No symmetry found



   Cartesian axes

     site n.     atom                  positions (alat units)
         1           Si  tau(   1) = (   0.8808086   0.8750000   0.8750000  )
         2           Si  tau(   2) = (   0.8750000   0.3750000   0.3750000  )
         3           Si  tau(   3) = (   0.3750000   0.8750000   0.3750000  )
         4           Si  tau(   4) = (   0.3750000   0.3750000   0.8750000  )
         5           Si  tau(   5) = (   0.1250000   0.1308086   0.1250000  )
         6           Si  tau(   6) = (   0.1250000   0.6250000   0.6250000  )
         7           Si  tau(   7) = (   0.6250000   0.1250000   0.6250000  )
         8           Si  tau(   8) = (   0.6250000   0.6250000   0.1250000  )

     number of k points=    32
                       cart. coord. in units 2pi/alat
        k(    1) = (   0.1250000   0.1250000   0.1250000), wk =   0.0625000
        k(    2) = (   0.1250000   0.1250000   0.3750000), wk =   0.0625000
        k(    3) = (   0.1250000   0.3750000   0.3750000), wk =   0.0625000
        k(    4) = (   0.3750000   0.3750000   0.3750000), wk =   0.0625000
        k(    5) = (  -0.1250000  -0.1250000   0.1250000), wk =   0.0625000
        k(    6) = (  -0.1250000   0.1250000  -0.1250000), wk =   0.0625000
        k(    7) = (   0.1250000  -0.1250000  -0.1250000), wk =   0.0625000
        k(    8) = (  -0.1250000  -0.1250000   0.3750000), wk =   0.0625000
        k(    9) = (  -0.1250000   0.1250000  -0.3750000), wk =   0.0625000
        k(   10) = (   0.1250000  -0.1250000  -0.3750000), wk =   0.0625000
        k(   11) = (   0.3750000  -0.1250000   0.1250000), wk =   0.0625000
        k(   12) = (  -0.3750000  -0.1250000  -0.1250000), wk =   0.0625000
        k(   13) = (   0.3750000   0.1250000  -0.1250000), wk =   0.0625000
        k(   14) = (  -0.3750000   0.1250000   0.1250000), wk =   0.0625000
        k(   15) = (  -0.1250000   0.3750000   0.1250000), wk =   0.0625000
        k(   16) = (  -0.1250000  -0.3750000  -0.1250000), wk =   0.0625000
        k(   17) = (   0.1250000   0.3750000  -0.1250000), wk =   0.0625000
        k(   18) = (   0.1250000  -0.3750000   0.1250000), wk =   0.0625000
        k(   19) = (  -0.1250000  -0.3750000   0.3750000), wk =   0.0625000
        k(   20) = (  -0.1250000   0.3750000  -0.3750000), wk =   0.0625000
        k(   21) = (   0.1250000  -0.3750000  -0.3750000), wk =   0.0625000
        k(   22) = (   0.3750000   0.1250000  -0.3750000), wk =   0.0625000
        k(   23) = (  -0.3750000  -0.1250000  -0.3750000), wk =   0.0625000
        k(   24) = (   0.3750000  -0.1250000   0.3750000), wk =   0.0625000
        k(   25) = (  -0.3750000   0.1250000   0.3750000), wk =   0.0625000
        k(   26) = (   0.3750000  -0.3750000   0.1250000), wk =   0.0625000
        k(   27) = (  -0.3750000  -0.3750000  -0.1250000), wk =   0.0625000
        k(   28) = (   0.3750000   0.3750000  -0.1250000), wk =   0.0625000
        k(   29) = (  -0.3750000   0.3750000   0.1250000), wk =   0.0625000
        k(   30) = (  -0.3750000  -0.3750000   0.3750000), wk =   0.0625000
        k(   31) = (  -0.3750000   0.3750000  -0.3750000), wk =   0.0625000
        k(   32) = (   0.3750000  -0.3750000  -0.3750000), wk =   0.0625000

     Dense  grid:    87271 G-vectors     FFT dimensions: (  60,  60,  60)

     Estimated max dynamical RAM per process >      59.84 MB

     Estimated total dynamical RAM >     239.35 MB

     Initial potential from superposition of free atoms

     starting charge   31.99553, renormalised to   32.00000
     Starting wfc are   32 randomized atomic wfcs
     Checking if some PAW data can be deallocated... 

     total cpu time spent up to now is        1.7 secs

     Self-consistent Calculation

     iteration #  1     ecut=    70.00 Ry     beta= 0.70
     Davidson diagonalization with overlap
     ethr =  1.00E-02,  avg # of iterations =  2.0

     Threshold (ethr) on eigenvalues was too large:
     Diagonalizing with lowered threshold

     Davidson diagonalization with overlap
     ethr =  6.98E-04,  avg # of iterations =  1.0

     total cpu time spent up to now is        5.8 secs

     total energy              =    -373.80717703 Ry
     Harris-Foulkes estimate   =    -373.85928685 Ry
     estimated scf accuracy    <       0.22077113 Ry

     iteration #  2     ecut=    70.00 Ry     beta= 0.70
     Davidson diagonalization with overlap
     ethr =  6.90E-04,  avg # of iterations =  1.0

     total cpu time spent up to now is        7.7 secs

     total energy              =    -373.81510245 Ry
     Harris-Foulkes estimate   =    -373.81564890 Ry
     estimated scf accuracy    <       0.00978382 Ry

     iteration #  3     ecut=    70.00 Ry     beta= 0.70
     Davidson diagonalization with overlap
     ethr =  3.06E-05,  avg # of iterations =  2.3

     total cpu time spent up to now is        9.9 secs

     total energy              =    -373.81619807 Ry
     Harris-Foulkes estimate   =    -373.81627039 Ry
     estimated scf accuracy    <       0.00020952 Ry

     iteration #  4     ecut=    70.00 Ry     beta= 0.70
     Davidson diagonalization with overlap
     ethr =  6.55E-07,  avg # of iterations =  3.2

     total cpu time spent up to now is       12.7 secs

     total energy              =    -373.81630256 Ry
     Harris-Foulkes estimate   =    -373.81630796 Ry
     estimated scf accuracy    <       0.00001286 Ry

     iteration #  5     ecut=    70.00 Ry     beta= 0.70
     Davidson diagonalization with overlap
     ethr =  4.02E-08,  avg # of iterations =  3.1

     total cpu time spent up to now is       15.4 secs

     total energy              =    -373.81630656 Ry
     Harris-Foulkes estimate   =    -373.81630725 Ry
     estimated scf accuracy    <       0.00000140 Ry

     iteration #  6     ecut=    70.00 Ry     beta= 0.70
     Davidson diagonalization with overlap
     ethr =  4.39E-09,  avg # of iterations =  2.5

     total cpu time spent up to now is       18.0 secs

     total energy              =    -373.81630693 Ry
     Harris-Foulkes estimate   =    -373.81630698 Ry
     estimated scf accuracy    <       0.00000005 Ry

     iteration #  7     ecut=    70.00 Ry     beta= 0.70
     Davidson diagonalization with overlap
     ethr =  1.71E-10,  avg # of iterations =  2.9

     total cpu time spent up to now is       20.7 secs

     total energy              =    -373.81630693 Ry
     Harris-Foulkes estimate   =    -373.81630695 Ry
     estimated scf accuracy    <          5.1E-09 Ry

     iteration #  8     ecut=    70.00 Ry     beta= 0.70
     Davidson diagonalization with overlap
     ethr =  1.61E-11,  avg # of iterations =  2.8

     total cpu time spent up to now is       23.3 secs

     End of self-consistent calculation

          k = 0.1250 0.1250 0.1250 ( 10891 PWs)   bands (ev):

    -5.6258  -2.6194  -2.5899  -2.5604  -0.8089  -0.7799  -0.7520   2.6259
     2.6395   2.6539   3.3515   3.3715   3.3937   4.4132   5.6852   5.7635

          k = 0.1250 0.1250 0.3750 ( 10909 PWs)   bands (ev):

    -5.0972  -4.0645  -2.4398  -2.4019  -0.9099  -0.8465   1.0843   2.0218
     2.0358   2.7969   3.0848   3.1263   3.3878   3.8417   4.7073   4.7880

          k = 0.1250 0.3750 0.3750 ( 10902 PWs)   bands (ev):

    -4.5965  -3.6746  -3.6324  -2.9409  -0.6142   0.2082   0.2523   1.4085
     2.0921   2.7352   2.7680   3.7214   4.0576   4.1182   4.1711   5.2754

          k = 0.3750 0.3750 0.3750 ( 10927 PWs)   bands (ev):

    -4.1650  -3.4888  -3.4546  -3.4213  -0.7050  -0.6622  -0.6210   0.1273
     3.7341   3.7558   3.7749   4.4445   4.4703   4.4973   4.9042   4.9735

          k =-0.1250-0.1250 0.1250 ( 10891 PWs)   bands (ev):

    -5.6258  -2.6194  -2.5903  -2.5601  -0.8085  -0.7799  -0.7524   2.6216
     2.6395   2.6579   3.3577   3.3734   3.3855   4.4136   5.6854   5.7637

          k =-0.1250 0.1250-0.1250 ( 10891 PWs)   bands (ev):

    -5.6264  -2.6151  -2.5892  -2.5568  -0.8159  -0.7833  -0.7624   2.6400
     2.6580   2.6683   3.3512   3.3573   3.3782   4.4462   5.6826   5.7274

          k = 0.1250-0.1250-0.1250 ( 10891 PWs)   bands (ev):

    -5.6253  -2.6228  -2.5909  -2.5647  -0.7984  -0.7764  -0.7451   2.6122
     2.6206   2.6400   3.3668   3.3860   3.3928   4.3811   5.7206   5.7662

          k =-0.1250-0.1250 0.3750 ( 10909 PWs)   bands (ev):

    -5.0972  -4.0645  -2.4398  -2.4019  -0.9099  -0.8465   1.0848   2.0212
     2.0350   2.7972   3.0850   3.1265   3.3884   3.8412   4.7075   4.7879

          k =-0.1250 0.1250-0.3750 ( 10909 PWs)   bands (ev):

    -5.0990  -4.0609  -2.4202  -2.4197  -0.8822  -0.8818   1.0585   2.0390
     2.0410   2.8312   3.0976   3.0990   3.4178   3.8386   4.7188   4.7367

          k = 0.1250-0.1250-0.3750 ( 10909 PWs)   bands (ev):

    -5.0954  -4.0681  -2.4226  -2.4222  -0.8740  -0.8735   1.1110   2.0155
     2.0176   2.7639   3.1124   3.1145   3.3597   3.8424   4.7118   4.8223

          k = 0.3750-0.1250 0.1250 ( 10909 PWs)   bands (ev):

    -5.0988  -4.0623  -2.4377  -2.3944  -0.9086  -0.8715   1.0745   2.0376
     2.0525   2.8200   3.0865   3.1085   3.4162   3.8220   4.6953   4.7751

          k =-0.3750-0.1250-0.1250 ( 10909 PWs)   bands (ev):

    -5.0981  -4.0609  -2.4472  -2.4044  -0.8885  -0.8518   1.0690   2.0171
     2.0318   2.8066   3.0979   3.1197   3.3872   3.8539   4.7285   4.7529

          k = 0.3750 0.1250-0.1250 ( 10909 PWs)   bands (ev):

    -5.0971  -4.0659  -2.4391  -2.3954  -0.9042  -0.8676   1.1008   2.0220
     2.0444   2.7853   3.0928   3.1179   3.3883   3.8238   4.6925   4.8172

          k =-0.3750 0.1250 0.1250 ( 10909 PWs)   bands (ev):

    -5.0964  -4.0645  -2.4486  -2.4054  -0.8841  -0.8480   1.0956   2.0022
     2.0238   2.7716   3.1033   3.1291   3.3590   3.8557   4.7321   4.7885

          k =-0.1250 0.3750 0.1250 ( 10909 PWs)   bands (ev):

    -5.0964  -4.0645  -2.4480  -2.4060  -0.8847  -0.8473   1.0953   2.0046
     2.0208   2.7732   3.1046   3.1282   3.3578   3.8555   4.7319   4.7887

          k =-0.1250-0.3750-0.1250 ( 10909 PWs)   bands (ev):

    -5.0971  -4.0659  -2.4384  -2.3961  -0.9049  -0.8670   1.1008   2.0253
     2.0415   2.7859   3.0935   3.1171   3.3870   3.8239   4.6926   4.8174

          k = 0.1250 0.3750-0.1250 ( 10909 PWs)   bands (ev):

    -5.0981  -4.0609  -2.4469  -2.4047  -0.8887  -0.8515   1.0691   2.0133
     2.0354   2.8058   3.0963   3.1216   3.3884   3.8536   4.7279   4.7533

          k = 0.1250-0.3750 0.1250 ( 10909 PWs)   bands (ev):

    -5.0988  -4.0623  -2.4373  -2.3947  -0.9089  -0.8713   1.0748   2.0338
     2.0568   2.8183   3.0851   3.1098   3.4173   3.8221   4.6953   4.7752

          k =-0.1250-0.3750 0.3750 ( 10902 PWs)   bands (ev):

    -4.5998  -3.6631  -3.6202  -2.9748  -0.5392   0.1683   0.2133   1.4269
     2.0840   2.7227   2.7484   3.7462   4.1142   4.1372   4.1682   5.2143

          k =-0.1250 0.3750-0.3750 ( 10902 PWs)   bands (ev):

    -4.6023  -3.6627  -3.6202  -2.9641  -0.5672   0.1651   0.2094   1.4481
     2.1024   2.7345   2.7669   3.7261   4.0959   4.1334   4.1622   5.2195

          k = 0.1250-0.3750-0.3750 ( 10902 PWs)   bands (ev):

    -4.5940  -3.6750  -3.6324  -2.9520  -0.5860   0.2115   0.2563   1.3877
     2.0739   2.7231   2.7487   3.7413   4.0778   4.1243   4.1736   5.2699

          k = 0.3750 0.1250-0.3750 ( 10902 PWs)   bands (ev):

    -4.5965  -3.6746  -3.6325  -2.9409  -0.6144   0.2085   0.2526   1.4074
     2.0924   2.7386   2.7651   3.7202   4.0635   4.1124   4.1723   5.2754

          k =-0.3750-0.1250-0.3750 ( 10902 PWs)   bands (ev):

    -4.5998  -3.6631  -3.6202  -2.9749  -0.5390   0.1684   0.2127   1.4280
     2.0838   2.7194   2.7511   3.7476   4.1089   4.1356   4.1736   5.2143

          k = 0.3750-0.1250 0.3750 ( 10902 PWs)   bands (ev):

    -4.6023  -3.6627  -3.6202  -2.9642  -0.5669   0.1648   0.2092   1.4480
     2.1033   2.7368   2.7634   3.7274   4.1025   4.1329   4.1552   5.2195

          k =-0.3750 0.1250 0.3750 ( 10902 PWs)   bands (ev):

    -4.5940  -3.6750  -3.6325  -2.9520  -0.5863   0.2121   0.2562   1.3877
     2.0732   2.7205   2.7524   3.7400   4.0700   4.1311   4.1753   5.2700

          k = 0.3750-0.3750 0.1250 ( 10902 PWs)   bands (ev):

    -4.6010  -3.6477  -3.6471  -2.9466  -0.6049   0.2066   0.2073   1.4384
     2.1062   2.7574   2.7592   3.7127   4.0998   4.1029   4.1559   5.2494

          k =-0.3750-0.3750-0.1250 ( 10902 PWs)   bands (ev):

    -4.5985  -3.6528  -3.6424  -2.9576  -0.5768   0.1892   0.2316   1.4184
     2.0871   2.7268   2.7600   3.7304   4.1102   4.1185   4.1589   5.2450

          k = 0.3750 0.3750-0.1250 ( 10902 PWs)   bands (ev):

    -4.5985  -3.6527  -3.6424  -2.9577  -0.5766   0.1892   0.2316   1.4178
     2.0867   2.7270   2.7603   3.7332   4.1092   4.1155   4.1603   5.2452

          k =-0.3750 0.3750 0.1250 ( 10902 PWs)   bands (ev):

    -4.5960  -3.6482  -3.6475  -2.9684  -0.5488   0.2138   0.2145   1.3975
     2.0686   2.7268   2.7286   3.7526   4.1235   4.1287   4.1629   5.2387

          k =-0.3750-0.3750 0.3750 ( 10927 PWs)   bands (ev):

    -4.1650  -3.4885  -3.4552  -3.4209  -0.7049  -0.6623  -0.6206   0.1269
     3.7198   3.7551   3.7907   4.4512   4.4736   4.4863   4.9042   4.9738

          k =-0.3750 0.3750-0.3750 ( 10927 PWs)   bands (ev):

    -4.1734  -3.4779  -3.4541  -3.4161  -0.7101  -0.6646  -0.6552   0.1569
     3.7532   3.7798   3.8104   4.4375   4.4446   4.4724   4.9096   4.9482

          k = 0.3750-0.3750-0.3750 ( 10927 PWs)   bands (ev):

    -4.1566  -3.4942  -3.4546  -3.4327  -0.6698  -0.6611  -0.6149   0.0973
     3.7005   3.7306   3.7583   4.4709   4.4927   4.5025   4.9278   4.9694

     highest occupied level (ev):     5.7662

!    total energy              =    -373.81630693 Ry
     Harris-Foulkes estimate   =    -373.81630693 Ry
     estimated scf accuracy    <          2.8E-10 Ry

     total all-electron energy =     -4640.583251 Ry

     The total energy is the sum of the following terms:

     one-electron contribution =      22.32411216 Ry
     hartree contribution      =       4.46328903 Ry
     xc contribution           =     -48.93000758 Ry
     ewald contribution        =     -66.74925558 Ry
     one-center paw contrib.   =    -284.92444495 Ry

     convergence has been achieved in   8 iterations

     Forces acting on atoms (cartesian axes, Ry/au):

     atom    1 type  1   force =    -0.01326030    0.00419398    0.00302929
     atom    2 type  1   force =    -0.00504694    0.00407469    0.00294799
     atom    3 type  1   force =    -0.00161677    0.00396287   -0.00270996
     atom    4 type  1   force =     0.00404933    0.00407992   -0.00293757
     atom    5 type  1   force =     0.00385692   -0.01348032    0.00263645
     atom    6 type  1   force =     0.00408027   -0.00183347   -0.00295539
     atom    7 type  1   force =     0.00397109   -0.00482749    0.00271665
     atom    8 type  1   force =     0.00396639    0.00382981   -0.00272745

     Total force =     0.025245     Total SCF correction =     0.000017


     Computing stress (Cartesian axis) and pressure

          total   stress  (Ry/bohr**3)                   (kbar)     P=    0.21
   0.00000113  -0.00000034  -0.00001961          0.17     -0.05     -2.88
  -0.00000034   0.00000110   0.00001849         -0.05      0.16      2.72
  -0.00001961   0.00001849   0.00000207         -2.88      2.72      0.30


     init_run     :      1.60s CPU      1.63s WALL (       1 calls)
     electrons    :     21.50s CPU     21.60s WALL (       1 calls)
     forces       :      0.43s CPU      0.44s WALL (       1 calls)
     stress       :      1.06s CPU      1.06s WALL (       1 calls)

     Called by init_run:
     wfcinit      :      1.33s CPU      1.35s WALL (       1 calls)
     potinit      :      0.11s CPU      0.12s WALL (       1 calls)

     Called by electrons:
     c_bands      :     17.12s CPU     17.20s WALL (       9 calls)
     sum_band     :      3.39s CPU      3.41s WALL (       9 calls)
     v_of_rho     :      0.27s CPU      0.27s WALL (       9 calls)
     newd         :      0.12s CPU      0.13s WALL (       9 calls)
     PAW_pot      :      0.66s CPU      0.66s WALL (       9 calls)
     mix_rho      :      0.03s CPU      0.03s WALL (       9 calls)

     Called by c_bands:
     init_us_2    :      0.73s CPU      0.79s WALL (     672 calls)
     cegterg      :     16.11s CPU     16.18s WALL (     288 calls)

     Called by sum_band:
     sum_band:bec :      0.00s CPU      0.00s WALL (     288 calls)
     addusdens    :      0.14s CPU      0.13s WALL (       9 calls)

     Called by *egterg:
     h_psi        :     13.89s CPU     13.99s WALL (     990 calls)
     s_psi        :      0.88s CPU      0.85s WALL (     990 calls)
     g_psi        :      0.06s CPU      0.07s WALL (     670 calls)
     cdiaghg      :      0.33s CPU      0.30s WALL (     926 calls)

     Called by h_psi:
     h_psi:pot    :     13.75s CPU     13.86s WALL (     990 calls)
     h_psi:calbec :      0.88s CPU      0.91s WALL (     990 calls)
     vloc_psi     :     12.18s CPU     12.25s WALL (     990 calls)
     add_vuspsi   :      0.70s CPU      0.69s WALL (     990 calls)

     General routines
     calbec       :      1.44s CPU      1.44s WALL (    1438 calls)
     fft          :      0.08s CPU      0.11s WALL (     144 calls)
     fftw         :     11.47s CPU     11.50s WALL (   32344 calls)

     Parallel routines
     fft_scatt_xy :      1.12s CPU      1.16s WALL (   32488 calls)
     fft_scatt_yz :      1.92s CPU      1.89s WALL (   32488 calls)

     PWSCF        :    24.69s CPU        24.84s WALL


   This run was terminated on:  11:50:47  24Oct2021            

=------------------------------------------------------------------------------=
   JOB DONE.
=------------------------------------------------------------------------------=
Note: The following floating-point exceptions are signalling: IEEE_UNDERFLOW_FLAG IEEE_DENORMAL
