
     Program PWSCF v.6.2 (svn rev. 13949:13950) starts on 24Oct2021 at 15:36:57 

     This program is part of the open-source Quantum ESPRESSO suite
     for quantum simulation of materials; please cite
         "P. Giannozzi et al., J. Phys.:Condens. Matter 21 395502 (2009);
         "P. Giannozzi et al., J. Phys.:Condens. Matter 29 465901 (2017);
          URL http://www.quantum-espresso.org", 
     in publications or presentations arising from this work. More details at
     http://www.quantum-espresso.org/quote

     Parallel version (MPI), running on     4 processors

     MPI processes distributed on     1 nodes
     R & G space division:  proc/nbgrp/npool/nimage =       4
     Reading input from headeradd_supercell-00007.in

     Current dimensions of program PWSCF are:
     Max number of different atomic species (ntypx) = 10
     Max number of k-points (npk) =  40000
     Max angular momentum in pseudopotentials (lmaxx) =  3
     Message from routine iosys:
     minimal I/O required, wf_collect reset to FALSE
               file Si.pbe-n-kjpaw_psl.0.1.UPF: wavefunction(s)  3S renormalized

     Subspace diagonalization in iterative solution of the eigenvalue problem:
     a serial algorithm will be used


     Parallelization info
     --------------------
     sticks:   dense  smooth     PW     G-vecs:    dense   smooth      PW
     Min        2372    2372    612               174341   174341   22844
     Max        2374    2374    613               174344   174344   22847
     Sum        9493    9493   2449               697371   697371   91383



     bravais-lattice index     =            0
     lattice parameter (alat)  =      20.6591  a.u.
     unit-cell volume          =    8817.2783 (a.u.)^3
     number of atoms/cell      =           64
     number of atomic types    =            1
     number of electrons       =       256.00
     number of Kohn-Sham states=          128
     kinetic-energy cutoff     =      70.0000  Ry
     charge density cutoff     =     280.0000  Ry
     convergence threshold     =      1.0E-09
     mixing beta               =       0.7000
     number of iterations used =            8  plain     mixing
     Exchange-correlation      =  SLA  PW   PBX  PBC ( 1  4  3  4 0 0)

     celldm(1)=  20.659106  celldm(2)=   0.000000  celldm(3)=   0.000000
     celldm(4)=   0.000000  celldm(5)=   0.000000  celldm(6)=   0.000000

     crystal axes: (cart. coord. in units of alat)
               a(1) = (   1.000000   0.000000   0.000000 )  
               a(2) = (   0.000000   1.000000   0.000000 )  
               a(3) = (   0.000000   0.000000   1.000000 )  

     reciprocal axes: (cart. coord. in units 2 pi/alat)
               b(1) = (  1.000000  0.000000  0.000000 )  
               b(2) = (  0.000000  1.000000  0.000000 )  
               b(3) = (  0.000000  0.000000  1.000000 )  


     PseudoPot. # 1 for Si read from file:
     /home/uezono/pseudo/Si.pbe-n-kjpaw_psl.0.1.UPF
     MD5 check sum: 0810ef13ebffcf5dbabd57b297315270
     Pseudo is Projector augmented-wave + core cor, Zval =  4.0
     Generated using "atomic" code by A. Dal Corso  v.5.0.2 svn rev. 9415
     Shape of augmentation charge: PSQ
     Using radial grid of 1141 points,  4 beta functions with: 
                l(1) =   0
                l(2) =   0
                l(3) =   1
                l(4) =   1
     Q(r) pseudized with 0 coefficients 


     atomic species   valence    mass     pseudopotential
        Si             4.00    28.08550     Si( 1.00)

     No symmetry found



   Cartesian axes

     site n.     atom                  positions (alat units)
         1           Si  tau(   1) = (   0.4404043   0.4375000   0.4375000  )
         2           Si  tau(   2) = (   0.9375000   0.4375000   0.4375000  )
         3           Si  tau(   3) = (   0.4354464   0.9354464   0.4375000  )
         4           Si  tau(   4) = (   0.9375000   0.9375000   0.4375000  )
         5           Si  tau(   5) = (   0.4375000   0.4375000   0.9375000  )
         6           Si  tau(   6) = (   0.9375000   0.4375000   0.9375000  )
         7           Si  tau(   7) = (   0.4375000   0.9375000   0.9375000  )
         8           Si  tau(   8) = (   0.9375000   0.9375000   0.9375000  )
         9           Si  tau(   9) = (   0.4375000   0.1875000   0.1875000  )
        10           Si  tau(  10) = (   0.9375000   0.1875000   0.1875000  )
        11           Si  tau(  11) = (   0.4375000   0.6875000   0.1875000  )
        12           Si  tau(  12) = (   0.9375000   0.6875000   0.1875000  )
        13           Si  tau(  13) = (   0.4375000   0.1875000   0.6875000  )
        14           Si  tau(  14) = (   0.9375000   0.1875000   0.6875000  )
        15           Si  tau(  15) = (   0.4375000   0.6875000   0.6875000  )
        16           Si  tau(  16) = (   0.9375000   0.6875000   0.6875000  )
        17           Si  tau(  17) = (   0.1875000   0.4375000   0.1875000  )
        18           Si  tau(  18) = (   0.6875000   0.4375000   0.1875000  )
        19           Si  tau(  19) = (   0.1875000   0.9375000   0.1875000  )
        20           Si  tau(  20) = (   0.6875000   0.9375000   0.1875000  )
        21           Si  tau(  21) = (   0.1875000   0.4375000   0.6875000  )
        22           Si  tau(  22) = (   0.6875000   0.4375000   0.6875000  )
        23           Si  tau(  23) = (   0.1875000   0.9375000   0.6875000  )
        24           Si  tau(  24) = (   0.6875000   0.9375000   0.6875000  )
        25           Si  tau(  25) = (   0.1875000   0.1875000   0.4375000  )
        26           Si  tau(  26) = (   0.6875000   0.1875000   0.4375000  )
        27           Si  tau(  27) = (   0.1875000   0.6875000   0.4375000  )
        28           Si  tau(  28) = (   0.6875000   0.6875000   0.4375000  )
        29           Si  tau(  29) = (   0.1875000   0.1875000   0.9375000  )
        30           Si  tau(  30) = (   0.6875000   0.1875000   0.9375000  )
        31           Si  tau(  31) = (   0.1875000   0.6875000   0.9375000  )
        32           Si  tau(  32) = (   0.6875000   0.6875000   0.9375000  )
        33           Si  tau(  33) = (   0.0625000   0.0625000   0.0625000  )
        34           Si  tau(  34) = (   0.5625000   0.0625000   0.0625000  )
        35           Si  tau(  35) = (   0.0625000   0.5625000   0.0625000  )
        36           Si  tau(  36) = (   0.5625000   0.5625000   0.0625000  )
        37           Si  tau(  37) = (   0.0625000   0.0625000   0.5625000  )
        38           Si  tau(  38) = (   0.5625000   0.0625000   0.5625000  )
        39           Si  tau(  39) = (   0.0625000   0.5625000   0.5625000  )
        40           Si  tau(  40) = (   0.5625000   0.5625000   0.5625000  )
        41           Si  tau(  41) = (   0.0625000   0.3125000   0.3125000  )
        42           Si  tau(  42) = (   0.5625000   0.3125000   0.3125000  )
        43           Si  tau(  43) = (   0.0625000   0.8125000   0.3125000  )
        44           Si  tau(  44) = (   0.5625000   0.8125000   0.3125000  )
        45           Si  tau(  45) = (   0.0625000   0.3125000   0.8125000  )
        46           Si  tau(  46) = (   0.5625000   0.3125000   0.8125000  )
        47           Si  tau(  47) = (   0.0625000   0.8125000   0.8125000  )
        48           Si  tau(  48) = (   0.5625000   0.8125000   0.8125000  )
        49           Si  tau(  49) = (   0.3125000   0.0625000   0.3125000  )
        50           Si  tau(  50) = (   0.8125000   0.0625000   0.3125000  )
        51           Si  tau(  51) = (   0.3125000   0.5625000   0.3125000  )
        52           Si  tau(  52) = (   0.8125000   0.5625000   0.3125000  )
        53           Si  tau(  53) = (   0.3125000   0.0625000   0.8125000  )
        54           Si  tau(  54) = (   0.8125000   0.0625000   0.8125000  )
        55           Si  tau(  55) = (   0.3125000   0.5625000   0.8125000  )
        56           Si  tau(  56) = (   0.8125000   0.5625000   0.8125000  )
        57           Si  tau(  57) = (   0.3125000   0.3125000   0.0625000  )
        58           Si  tau(  58) = (   0.8125000   0.3125000   0.0625000  )
        59           Si  tau(  59) = (   0.3125000   0.8125000   0.0625000  )
        60           Si  tau(  60) = (   0.8125000   0.8125000   0.0625000  )
        61           Si  tau(  61) = (   0.3125000   0.3125000   0.5625000  )
        62           Si  tau(  62) = (   0.8125000   0.3125000   0.5625000  )
        63           Si  tau(  63) = (   0.3125000   0.8125000   0.5625000  )
        64           Si  tau(  64) = (   0.8125000   0.8125000   0.5625000  )

     number of k points=     4
                       cart. coord. in units 2pi/alat
        k(    1) = (   0.2500000   0.2500000   0.2500000), wk =   0.5000000
        k(    2) = (  -0.2500000  -0.2500000   0.2500000), wk =   0.5000000
        k(    3) = (  -0.2500000   0.2500000  -0.2500000), wk =   0.5000000
        k(    4) = (   0.2500000  -0.2500000  -0.2500000), wk =   0.5000000

     Dense  grid:   697371 G-vectors     FFT dimensions: ( 120, 120, 120)

     Estimated max dynamical RAM per process >       1.08 GB

     Estimated total dynamical RAM >       4.33 GB

     Initial potential from superposition of free atoms

     starting charge  255.96421, renormalised to  256.00000
     Starting wfc are  256 randomized atomic wfcs
     Checking if some PAW data can be deallocated... 

     total cpu time spent up to now is       41.1 secs

     Self-consistent Calculation

     iteration #  1     ecut=    70.00 Ry     beta= 0.70
     Davidson diagonalization with overlap
     ethr =  1.00E-02,  avg # of iterations =  2.0

     Threshold (ethr) on eigenvalues was too large:
     Diagonalizing with lowered threshold

     Davidson diagonalization with overlap
     ethr =  6.98E-04,  avg # of iterations =  1.0

     total cpu time spent up to now is      155.9 secs

     total energy              =   -2990.46243995 Ry
     Harris-Foulkes estimate   =   -2990.88049024 Ry
     estimated scf accuracy    <       1.76675755 Ry

     iteration #  2     ecut=    70.00 Ry     beta= 0.70
     Davidson diagonalization with overlap
     ethr =  6.90E-04,  avg # of iterations =  1.0

     total cpu time spent up to now is      204.5 secs

     total energy              =   -2990.52627790 Ry
     Harris-Foulkes estimate   =   -2990.53058839 Ry
     estimated scf accuracy    <       0.07824693 Ry

     iteration #  3     ecut=    70.00 Ry     beta= 0.70
     Davidson diagonalization with overlap
     ethr =  3.06E-05,  avg # of iterations =  2.8

     total cpu time spent up to now is      262.0 secs

     total energy              =   -2990.53495883 Ry
     Harris-Foulkes estimate   =   -2990.53564760 Ry
     estimated scf accuracy    <       0.00181236 Ry

     iteration #  4     ecut=    70.00 Ry     beta= 0.70
     Davidson diagonalization with overlap
     ethr =  7.08E-07,  avg # of iterations =  4.0

     total cpu time spent up to now is      345.0 secs

     total energy              =   -2990.53549270 Ry
     Harris-Foulkes estimate   =   -2990.53629560 Ry
     estimated scf accuracy    <       0.00228195 Ry

     iteration #  5     ecut=    70.00 Ry     beta= 0.70
     Davidson diagonalization with overlap
     ethr =  7.08E-07,  avg # of iterations =  3.0

     total cpu time spent up to now is      406.9 secs

     total energy              =   -2990.53587692 Ry
     Harris-Foulkes estimate   =   -2990.53595558 Ry
     estimated scf accuracy    <       0.00022896 Ry

     iteration #  6     ecut=    70.00 Ry     beta= 0.70
     Davidson diagonalization with overlap
     ethr =  8.94E-08,  avg # of iterations =  3.0

     total cpu time spent up to now is      470.3 secs

     total energy              =   -2990.53591300 Ry
     Harris-Foulkes estimate   =   -2990.53593499 Ry
     estimated scf accuracy    <       0.00006075 Ry

     iteration #  7     ecut=    70.00 Ry     beta= 0.70
     Davidson diagonalization with overlap
     ethr =  2.37E-08,  avg # of iterations =  2.0

     total cpu time spent up to now is      530.3 secs

     total energy              =   -2990.53592366 Ry
     Harris-Foulkes estimate   =   -2990.53592435 Ry
     estimated scf accuracy    <       0.00000139 Ry

     iteration #  8     ecut=    70.00 Ry     beta= 0.70
     Davidson diagonalization with overlap
     ethr =  5.43E-10,  avg # of iterations =  3.0

     total cpu time spent up to now is      617.2 secs

     total energy              =   -2990.53592463 Ry
     Harris-Foulkes estimate   =   -2990.53592489 Ry
     estimated scf accuracy    <       0.00000040 Ry

     iteration #  9     ecut=    70.00 Ry     beta= 0.70
     Davidson diagonalization with overlap
     ethr =  1.55E-10,  avg # of iterations =  3.0

     total cpu time spent up to now is      679.2 secs

     total energy              =   -2990.53592458 Ry
     Harris-Foulkes estimate   =   -2990.53592473 Ry
     estimated scf accuracy    <       0.00000021 Ry

     iteration # 10     ecut=    70.00 Ry     beta= 0.70
     Davidson diagonalization with overlap
     ethr =  8.38E-11,  avg # of iterations =  2.0

     total cpu time spent up to now is      738.5 secs

     total energy              =   -2990.53592455 Ry
     Harris-Foulkes estimate   =   -2990.53592462 Ry
     estimated scf accuracy    <       0.00000003 Ry

     iteration # 11     ecut=    70.00 Ry     beta= 0.70
     Davidson diagonalization with overlap
     ethr =  1.07E-11,  avg # of iterations =  3.0

     total cpu time spent up to now is      803.0 secs

     total energy              =   -2990.53592456 Ry
     Harris-Foulkes estimate   =   -2990.53592456 Ry
     estimated scf accuracy    <          3.5E-09 Ry

     iteration # 12     ecut=    70.00 Ry     beta= 0.70
     Davidson diagonalization with overlap
     ethr =  1.37E-12,  avg # of iterations =  3.0

     total cpu time spent up to now is      878.2 secs

     total energy              =   -2990.53592456 Ry
     Harris-Foulkes estimate   =   -2990.53592456 Ry
     estimated scf accuracy    <          1.7E-09 Ry

     iteration # 13     ecut=    70.00 Ry     beta= 0.70
     Davidson diagonalization with overlap
     ethr =  6.69E-13,  avg # of iterations =  3.0

     total cpu time spent up to now is      942.1 secs

     End of self-consistent calculation

          k = 0.2500 0.2500 0.2500 ( 87251 PWs)   bands (ev):

    -5.6250  -5.0992  -5.0956  -5.0941  -4.5997  -4.5959  -4.5947  -4.1635
    -4.0661  -4.0626  -4.0613  -3.6563  -3.6492  -3.6471  -3.6447  -3.6437
    -3.6407  -3.4566  -3.4555  -3.4520  -2.9622  -2.9589  -2.9557  -2.5914
    -2.5898  -2.5861  -2.4292  -2.4235  -2.4211  -2.4184  -2.4175  -2.4146
    -0.8865  -0.8832  -0.8783  -0.8762  -0.8740  -0.8724  -0.7832  -0.7815
    -0.7776  -0.6655  -0.6622  -0.6595  -0.5831  -0.5770  -0.5653   0.1271
     0.2033   0.2044   0.2103   0.2118   0.2159   0.2170   1.0790   1.0850
     1.0935   1.4159   1.4174   1.4216   2.0247   2.0264   2.0287   2.0295
     2.0317   2.0334   2.0852   2.0876   2.0913   2.6393   2.6401   2.6419
     2.7367   2.7389   2.7422   2.7440   2.7468   2.7483   2.7930   2.7963
     2.7991   3.1017   3.1049   3.1071   3.1084   3.1103   3.1134   3.3700
     3.3719   3.3726   3.3836   3.3851   3.3889   3.7308   3.7355   3.7385
     3.7554   3.7564   3.7599   3.8366   3.8387   3.8424   4.1083   4.1118
     4.1140   4.1143   4.1164   4.1237   4.1506   4.1526   4.1570   4.4141
     4.4689   4.4707   4.4719   4.7108   4.7135   4.7178   4.7733   4.7786
     4.7881   4.9338   4.9381   5.2387   5.2424   5.2477   5.7209   5.7260

          k =-0.2500-0.2500 0.2500 ( 87251 PWs)   bands (ev):

    -5.6250  -5.0985  -5.0972  -5.0934  -4.5988  -4.5977  -4.5937  -4.1631
    -4.0653  -4.0637  -4.0606  -3.6536  -3.6503  -3.6492  -3.6467  -3.6449
    -3.6381  -3.4577  -3.4544  -3.4529  -2.9615  -2.9581  -2.9549  -2.5922
    -2.5885  -2.5871  -2.4269  -2.4240  -2.4232  -2.4206  -2.4182  -2.4122
    -0.8847  -0.8827  -0.8799  -0.8778  -0.8736  -0.8707  -0.7834  -0.7798
    -0.7779  -0.6648  -0.6612  -0.6590  -0.5865  -0.5754  -0.5688   0.1256
     0.2048   0.2055   0.2097   0.2111   0.2171   0.2183   1.0772   1.0857
     1.0917   1.4150   1.4192   1.4207   2.0248   2.0265   2.0288   2.0293
     2.0317   2.0335   2.0852   2.0890   2.0914   2.6381   2.6401   2.6408
     2.7376   2.7391   2.7425   2.7442   2.7471   2.7498   2.7941   2.7969
     2.8002   3.1019   3.1049   3.1068   3.1080   3.1104   3.1133   3.3705
     3.3721   3.3733   3.3841   3.3867   3.3885   3.7300   3.7344   3.7380
     3.7543   3.7564   3.7572   3.8365   3.8402   3.8424   4.1046   4.1119
     4.1141   4.1146   4.1163   4.1203   4.1501   4.1544   4.1573   4.4124
     4.4698   4.4709   4.4735   4.7115   4.7152   4.7179   4.7703   4.7787
     4.7850   4.9342   4.9388   5.2393   5.2445   5.2484   5.7220   5.7270

          k =-0.2500 0.2500-0.2500 ( 87251 PWs)   bands (ev):

    -5.6251  -5.1004  -5.0968  -5.0917  -4.6008  -4.5972  -4.5922  -4.1637
    -4.0678  -4.0640  -4.0590  -3.6552  -3.6502  -3.6484  -3.6470  -3.6411
    -3.6386  -3.4562  -3.4550  -3.4521  -2.9641  -2.9596  -2.9550  -2.5907
    -2.5896  -2.5867  -2.4289  -2.4238  -2.4223  -2.4208  -2.4163  -2.4116
    -0.8875  -0.8824  -0.8793  -0.8780  -0.8745  -0.8697  -0.7828  -0.7813
    -0.7793  -0.6654  -0.6621  -0.6605  -0.5775  -0.5762  -0.5682   0.1282
     0.2023   0.2053   0.2102   0.2114   0.2137   0.2171   1.0811   1.0857
     1.0929   1.4167   1.4172   1.4209   2.0243   2.0271   2.0287   2.0291
     2.0318   2.0327   2.0867   2.0872   2.0900   2.6401   2.6405   2.6425
     2.7363   2.7383   2.7417   2.7436   2.7459   2.7478   2.7926   2.7946
     2.7997   3.1020   3.1037   3.1071   3.1087   3.1107   3.1138   3.3697
     3.3714   3.3719   3.3841   3.3844   3.3883   3.7318   3.7353   3.7398
     3.7561   3.7570   3.7612   3.8360   3.8387   3.8422   4.1114   4.1131
     4.1140   4.1153   4.1168   4.1222   4.1500   4.1529   4.1570   4.4148
     4.4682   4.4704   4.4710   4.7102   4.7133   4.7167   4.7778   4.7795
     4.7867   4.9341   4.9373   5.2380   5.2419   5.2465   5.7211   5.7246

          k = 0.2500-0.2500-0.2500 ( 87251 PWs)   bands (ev):

    -5.6250  -5.1011  -5.0958  -5.0923  -4.6013  -4.5962  -4.5926  -4.1627
    -4.0680  -4.0627  -4.0591  -3.6555  -3.6530  -3.6469  -3.6455  -3.6438
    -3.6388  -3.4576  -3.4544  -3.4534  -2.9623  -2.9576  -2.9532  -2.5918
    -2.5888  -2.5876  -2.4298  -2.4252  -2.4208  -2.4193  -2.4178  -2.4127
    -0.8876  -0.8822  -0.8781  -0.8768  -0.8742  -0.8697  -0.7827  -0.7798
    -0.7782  -0.6630  -0.6609  -0.6590  -0.5839  -0.5760  -0.5749   0.1245
     0.2043   0.2081   0.2101   0.2112   0.2163   0.2191   1.0778   1.0851
     1.0896   1.4157   1.4194   1.4199   2.0253   2.0262   2.0283   2.0298
     2.0313   2.0334   2.0873   2.0897   2.0903   2.6376   2.6396   2.6401
     2.7383   2.7391   2.7429   2.7446   2.7476   2.7491   2.7940   2.7984
     2.8013   3.1014   3.1045   3.1064   3.1080   3.1115   3.1132   3.3711
     3.3722   3.3734   3.3844   3.3876   3.3886   3.7291   3.7344   3.7377
     3.7525   3.7556   3.7566   3.8372   3.8400   3.8431   4.1056   4.1114
     4.1131   4.1144   4.1151   4.1170   4.1512   4.1545   4.1581   4.4108
     4.4710   4.4717   4.4738   4.7122   4.7154   4.7185   4.7715   4.7781
     4.7799   4.9354   4.9385   5.2408   5.2449   5.2491   5.7235   5.7270

     highest occupied level (ev):     5.7270

!    total energy              =   -2990.53592456 Ry
     Harris-Foulkes estimate   =   -2990.53592456 Ry
     estimated scf accuracy    <          4.1E-10 Ry

     total all-electron energy =    -37124.671478 Ry

     The total energy is the sum of the following terms:

     one-electron contribution =     178.60421704 Ry
     hartree contribution      =      35.70169845 Ry
     xc contribution           =    -391.44049777 Ry
     ewald contribution        =    -534.00633278 Ry
     one-center paw contrib.   =   -2279.39500949 Ry

     convergence has been achieved in  13 iterations

     Forces acting on atoms (cartesian axes, Ry/au):

     atom    1 type  1   force =    -0.01590526   -0.00001572   -0.00000028
     atom    2 type  1   force =     0.00002694    0.00000510    0.00000073
     atom    3 type  1   force =     0.01129306    0.01123829   -0.00060792
     atom    4 type  1   force =    -0.00002261   -0.00003826    0.00000044
     atom    5 type  1   force =     0.00039019    0.00000517   -0.00000004
     atom    6 type  1   force =    -0.00002420   -0.00001680    0.00000060
     atom    7 type  1   force =    -0.00051347   -0.00003894    0.00000010
     atom    8 type  1   force =     0.00002870    0.00033504   -0.00000068
     atom    9 type  1   force =    -0.00007823   -0.00013211    0.00035451
     atom   10 type  1   force =     0.00000676   -0.00002667   -0.00003865
     atom   11 type  1   force =    -0.00007263   -0.00013393   -0.00035270
     atom   12 type  1   force =     0.00000655   -0.00002785    0.00003664
     atom   13 type  1   force =    -0.00023122   -0.00019455    0.00002461
     atom   14 type  1   force =    -0.00000685   -0.00003333    0.00007125
     atom   15 type  1   force =    -0.00023444   -0.00020294   -0.00003133
     atom   16 type  1   force =    -0.00000774   -0.00003222   -0.00006903
     atom   17 type  1   force =     0.00019428   -0.00010343    0.00027407
     atom   18 type  1   force =     0.00020174   -0.00010627   -0.00028107
     atom   19 type  1   force =    -0.00020140    0.00044139   -0.00032038
     atom   20 type  1   force =    -0.00020401    0.00044091    0.00031626
     atom   21 type  1   force =     0.00020799    0.00010335   -0.00028750
     atom   22 type  1   force =     0.00021421    0.00010760    0.00029472
     atom   23 type  1   force =    -0.00004667    0.00030232    0.00016005
     atom   24 type  1   force =    -0.00004276    0.00030174   -0.00016030
     atom   25 type  1   force =     0.00022932    0.00022300   -0.00011212
     atom   26 type  1   force =    -0.00008374   -0.00055486   -0.00026950
     atom   27 type  1   force =    -0.00010443   -0.00056275    0.00026944
     atom   28 type  1   force =     0.00023306    0.00023054    0.00011207
     atom   29 type  1   force =    -0.00004244   -0.00016055   -0.00000930
     atom   30 type  1   force =     0.00006643    0.00010055   -0.00002373
     atom   31 type  1   force =     0.00006647    0.00010140    0.00002311
     atom   32 type  1   force =    -0.00004112   -0.00016084    0.00000909
     atom   33 type  1   force =    -0.00006049   -0.00016785   -0.00000726
     atom   34 type  1   force =     0.00026189    0.00003392   -0.00002661
     atom   35 type  1   force =     0.00001928    0.00002020   -0.00001952
     atom   36 type  1   force =    -0.00025963    0.00001115   -0.00000018
     atom   37 type  1   force =     0.00000861    0.00003996   -0.00003626
     atom   38 type  1   force =    -0.00443676   -0.00433767   -0.00335610
     atom   39 type  1   force =    -0.00005203   -0.00000097   -0.00000228
     atom   40 type  1   force =     0.00394415    0.00268755    0.00264183
     atom   41 type  1   force =    -0.00001359   -0.00003925   -0.00003783
     atom   42 type  1   force =     0.00399654   -0.00266834   -0.00269468
     atom   43 type  1   force =     0.00006274    0.00004509   -0.00003569
     atom   44 type  1   force =    -0.00099357   -0.00091689   -0.00000548
     atom   45 type  1   force =     0.00006306    0.00001100   -0.00002480
     atom   46 type  1   force =    -0.00022034   -0.00004889   -0.00003705
     atom   47 type  1   force =    -0.00002209   -0.00019116   -0.00003242
     atom   48 type  1   force =     0.00033227    0.00005208   -0.00002984
     atom   49 type  1   force =    -0.00093706   -0.00096993    0.00009610
     atom   50 type  1   force =     0.00006356    0.00004177    0.00003855
     atom   51 type  1   force =     0.00388077   -0.00244558    0.00247308
     atom   52 type  1   force =    -0.00001398   -0.00003873    0.00003824
     atom   53 type  1   force =     0.00033258    0.00004797    0.00002579
     atom   54 type  1   force =    -0.00002101   -0.00019120    0.00003220
     atom   55 type  1   force =    -0.00021895   -0.00005154    0.00003636
     atom   56 type  1   force =     0.00006483    0.00000879    0.00002658
     atom   57 type  1   force =    -0.00025893    0.00001342   -0.00000003
     atom   58 type  1   force =     0.00002136    0.00002298    0.00001688
     atom   59 type  1   force =     0.00025826    0.00003357    0.00002578
     atom   60 type  1   force =    -0.00006059   -0.00016951    0.00000550
     atom   61 type  1   force =     0.00382630    0.00246332   -0.00241916
     atom   62 type  1   force =    -0.00004842    0.00000229    0.00000037
     atom   63 type  1   force =    -0.00483014   -0.00473364    0.00389030
     atom   64 type  1   force =     0.00000889    0.00004170    0.00003447

     Total force =     0.027197     Total SCF correction =     0.000039


     Computing stress (Cartesian axis) and pressure

          total   stress  (Ry/bohr**3)                   (kbar)     P=    0.12
   0.00000067   0.00000009  -0.00000169          0.10      0.01     -0.25
   0.00000009   0.00000082   0.00000070          0.01      0.12      0.10
  -0.00000169   0.00000070   0.00000089         -0.25      0.10      0.13


     init_run     :     40.18s CPU     41.00s WALL (       1 calls)
     electrons    :    880.02s CPU    901.02s WALL (       1 calls)
     forces       :     11.68s CPU     11.88s WALL (       1 calls)
     stress       :     56.54s CPU     56.78s WALL (       1 calls)

     Called by init_run:
     wfcinit      :     37.14s CPU     37.83s WALL (       1 calls)
     potinit      :      1.07s CPU      1.09s WALL (       1 calls)

     Called by electrons:
     c_bands      :    731.20s CPU    748.78s WALL (      14 calls)
     sum_band     :    132.27s CPU    134.69s WALL (      14 calls)
     v_of_rho     :      5.39s CPU      5.56s WALL (      14 calls)
     newd         :      2.83s CPU      3.73s WALL (      14 calls)
     PAW_pot      :      8.10s CPU      8.10s WALL (      14 calls)
     mix_rho      :      1.23s CPU      1.26s WALL (      14 calls)

     Called by c_bands:
     init_us_2    :      7.70s CPU      7.74s WALL (     124 calls)
     cegterg      :    716.36s CPU    733.87s WALL (      56 calls)

     Called by sum_band:
     sum_band:bec :      0.02s CPU      0.02s WALL (      56 calls)
     addusdens    :      3.59s CPU      4.35s WALL (      14 calls)

     Called by *egterg:
     h_psi        :    636.11s CPU    647.27s WALL (     203 calls)
     s_psi        :     36.73s CPU     36.74s WALL (     203 calls)
     g_psi        :      1.29s CPU      1.30s WALL (     143 calls)
     cdiaghg      :      4.86s CPU      4.86s WALL (     195 calls)

     Called by h_psi:
     h_psi:pot    :    632.04s CPU    643.11s WALL (     203 calls)
     h_psi:calbec :     36.66s CPU     36.65s WALL (     203 calls)
     vloc_psi     :    558.78s CPU    569.85s WALL (     203 calls)
     add_vuspsi   :     36.61s CPU     36.61s WALL (     203 calls)

     General routines
     calbec       :     53.68s CPU     53.72s WALL (     279 calls)
     fft          :      4.51s CPU      4.81s WALL (     209 calls)
     fftw         :    563.92s CPU    576.27s WALL (   49134 calls)

     Parallel routines
     fft_scatt_xy :     94.57s CPU     94.74s WALL (   49343 calls)
     fft_scatt_yz :    104.23s CPU    111.29s WALL (   49343 calls)

     PWSCF        : 16m28.52s CPU    16m50.82s WALL


   This run was terminated on:  15:53:48  24Oct2021            

=------------------------------------------------------------------------------=
   JOB DONE.
=------------------------------------------------------------------------------=
Note: The following floating-point exceptions are signalling: IEEE_UNDERFLOW_FLAG IEEE_DENORMAL
