
     Program PWSCF v.6.2 (svn rev. 13949:13950) starts on 25Oct2021 at  2:18: 5 

     This program is part of the open-source Quantum ESPRESSO suite
     for quantum simulation of materials; please cite
         "P. Giannozzi et al., J. Phys.:Condens. Matter 21 395502 (2009);
         "P. Giannozzi et al., J. Phys.:Condens. Matter 29 465901 (2017);
          URL http://www.quantum-espresso.org", 
     in publications or presentations arising from this work. More details at
     http://www.quantum-espresso.org/quote

     Parallel version (MPI), running on     4 processors

     MPI processes distributed on     1 nodes
     R & G space division:  proc/nbgrp/npool/nimage =       4
     Reading input from headeradd_supercell-00047.in

     Current dimensions of program PWSCF are:
     Max number of different atomic species (ntypx) = 10
     Max number of k-points (npk) =  40000
     Max angular momentum in pseudopotentials (lmaxx) =  3
     Message from routine iosys:
     minimal I/O required, wf_collect reset to FALSE
               file Si.pbe-n-kjpaw_psl.0.1.UPF: wavefunction(s)  3S renormalized

     Subspace diagonalization in iterative solution of the eigenvalue problem:
     a serial algorithm will be used


     Parallelization info
     --------------------
     sticks:   dense  smooth     PW     G-vecs:    dense   smooth      PW
     Min        2372    2372    612               174341   174341   22844
     Max        2374    2374    613               174344   174344   22847
     Sum        9493    9493   2449               697371   697371   91383



     bravais-lattice index     =            0
     lattice parameter (alat)  =      20.6591  a.u.
     unit-cell volume          =    8817.2783 (a.u.)^3
     number of atoms/cell      =           64
     number of atomic types    =            1
     number of electrons       =       256.00
     number of Kohn-Sham states=          128
     kinetic-energy cutoff     =      70.0000  Ry
     charge density cutoff     =     280.0000  Ry
     convergence threshold     =      1.0E-09
     mixing beta               =       0.7000
     number of iterations used =            8  plain     mixing
     Exchange-correlation      =  SLA  PW   PBX  PBC ( 1  4  3  4 0 0)

     celldm(1)=  20.659106  celldm(2)=   0.000000  celldm(3)=   0.000000
     celldm(4)=   0.000000  celldm(5)=   0.000000  celldm(6)=   0.000000

     crystal axes: (cart. coord. in units of alat)
               a(1) = (   1.000000   0.000000   0.000000 )  
               a(2) = (   0.000000   1.000000   0.000000 )  
               a(3) = (   0.000000   0.000000   1.000000 )  

     reciprocal axes: (cart. coord. in units 2 pi/alat)
               b(1) = (  1.000000  0.000000  0.000000 )  
               b(2) = (  0.000000  1.000000  0.000000 )  
               b(3) = (  0.000000  0.000000  1.000000 )  


     PseudoPot. # 1 for Si read from file:
     /home/uezono/pseudo/Si.pbe-n-kjpaw_psl.0.1.UPF
     MD5 check sum: 0810ef13ebffcf5dbabd57b297315270
     Pseudo is Projector augmented-wave + core cor, Zval =  4.0
     Generated using "atomic" code by A. Dal Corso  v.5.0.2 svn rev. 9415
     Shape of augmentation charge: PSQ
     Using radial grid of 1141 points,  4 beta functions with: 
                l(1) =   0
                l(2) =   0
                l(3) =   1
                l(4) =   1
     Q(r) pseudized with 0 coefficients 


     atomic species   valence    mass     pseudopotential
        Si             4.00    28.08550     Si( 1.00)

     No symmetry found



   Cartesian axes

     site n.     atom                  positions (alat units)
         1           Si  tau(   1) = (   0.4404043   0.4375000   0.4375000  )
         2           Si  tau(   2) = (   0.9375000   0.4375000   0.4375000  )
         3           Si  tau(   3) = (   0.4375000   0.9375000   0.4375000  )
         4           Si  tau(   4) = (   0.9375000   0.9375000   0.4375000  )
         5           Si  tau(   5) = (   0.4375000   0.4375000   0.9375000  )
         6           Si  tau(   6) = (   0.9375000   0.4375000   0.9375000  )
         7           Si  tau(   7) = (   0.4375000   0.9375000   0.9375000  )
         8           Si  tau(   8) = (   0.9375000   0.9375000   0.9375000  )
         9           Si  tau(   9) = (   0.4375000   0.1875000   0.1875000  )
        10           Si  tau(  10) = (   0.9375000   0.1875000   0.1875000  )
        11           Si  tau(  11) = (   0.4375000   0.6875000   0.1875000  )
        12           Si  tau(  12) = (   0.9375000   0.6875000   0.1875000  )
        13           Si  tau(  13) = (   0.4375000   0.1875000   0.6875000  )
        14           Si  tau(  14) = (   0.9375000   0.1875000   0.6875000  )
        15           Si  tau(  15) = (   0.4375000   0.6875000   0.6875000  )
        16           Si  tau(  16) = (   0.9375000   0.6875000   0.6875000  )
        17           Si  tau(  17) = (   0.1875000   0.4375000   0.1875000  )
        18           Si  tau(  18) = (   0.6875000   0.4375000   0.1875000  )
        19           Si  tau(  19) = (   0.1875000   0.9345957   0.1875000  )
        20           Si  tau(  20) = (   0.6875000   0.9375000   0.1875000  )
        21           Si  tau(  21) = (   0.1875000   0.4375000   0.6875000  )
        22           Si  tau(  22) = (   0.6875000   0.4375000   0.6875000  )
        23           Si  tau(  23) = (   0.1875000   0.9375000   0.6875000  )
        24           Si  tau(  24) = (   0.6875000   0.9375000   0.6875000  )
        25           Si  tau(  25) = (   0.1875000   0.1875000   0.4375000  )
        26           Si  tau(  26) = (   0.6875000   0.1875000   0.4375000  )
        27           Si  tau(  27) = (   0.1875000   0.6875000   0.4375000  )
        28           Si  tau(  28) = (   0.6875000   0.6875000   0.4375000  )
        29           Si  tau(  29) = (   0.1875000   0.1875000   0.9375000  )
        30           Si  tau(  30) = (   0.6875000   0.1875000   0.9375000  )
        31           Si  tau(  31) = (   0.1875000   0.6875000   0.9375000  )
        32           Si  tau(  32) = (   0.6875000   0.6875000   0.9375000  )
        33           Si  tau(  33) = (   0.0625000   0.0625000   0.0625000  )
        34           Si  tau(  34) = (   0.5625000   0.0625000   0.0625000  )
        35           Si  tau(  35) = (   0.0625000   0.5625000   0.0625000  )
        36           Si  tau(  36) = (   0.5625000   0.5625000   0.0625000  )
        37           Si  tau(  37) = (   0.0625000   0.0625000   0.5625000  )
        38           Si  tau(  38) = (   0.5625000   0.0625000   0.5625000  )
        39           Si  tau(  39) = (   0.0625000   0.5625000   0.5625000  )
        40           Si  tau(  40) = (   0.5625000   0.5625000   0.5625000  )
        41           Si  tau(  41) = (   0.0625000   0.3125000   0.3125000  )
        42           Si  tau(  42) = (   0.5625000   0.3125000   0.3125000  )
        43           Si  tau(  43) = (   0.0625000   0.8125000   0.3125000  )
        44           Si  tau(  44) = (   0.5625000   0.8125000   0.3125000  )
        45           Si  tau(  45) = (   0.0625000   0.3125000   0.8125000  )
        46           Si  tau(  46) = (   0.5625000   0.3125000   0.8125000  )
        47           Si  tau(  47) = (   0.0625000   0.8125000   0.8125000  )
        48           Si  tau(  48) = (   0.5625000   0.8125000   0.8125000  )
        49           Si  tau(  49) = (   0.3125000   0.0625000   0.3125000  )
        50           Si  tau(  50) = (   0.8125000   0.0625000   0.3125000  )
        51           Si  tau(  51) = (   0.3125000   0.5625000   0.3125000  )
        52           Si  tau(  52) = (   0.8125000   0.5625000   0.3125000  )
        53           Si  tau(  53) = (   0.3125000   0.0625000   0.8125000  )
        54           Si  tau(  54) = (   0.8125000   0.0625000   0.8125000  )
        55           Si  tau(  55) = (   0.3125000   0.5625000   0.8125000  )
        56           Si  tau(  56) = (   0.8125000   0.5625000   0.8125000  )
        57           Si  tau(  57) = (   0.3125000   0.3125000   0.0625000  )
        58           Si  tau(  58) = (   0.8125000   0.3125000   0.0625000  )
        59           Si  tau(  59) = (   0.3125000   0.8125000   0.0625000  )
        60           Si  tau(  60) = (   0.8125000   0.8125000   0.0625000  )
        61           Si  tau(  61) = (   0.3125000   0.3125000   0.5625000  )
        62           Si  tau(  62) = (   0.8125000   0.3125000   0.5625000  )
        63           Si  tau(  63) = (   0.3125000   0.8125000   0.5625000  )
        64           Si  tau(  64) = (   0.8125000   0.8125000   0.5625000  )

     number of k points=     4
                       cart. coord. in units 2pi/alat
        k(    1) = (   0.2500000   0.2500000   0.2500000), wk =   0.5000000
        k(    2) = (  -0.2500000  -0.2500000   0.2500000), wk =   0.5000000
        k(    3) = (  -0.2500000   0.2500000  -0.2500000), wk =   0.5000000
        k(    4) = (   0.2500000  -0.2500000  -0.2500000), wk =   0.5000000

     Dense  grid:   697371 G-vectors     FFT dimensions: ( 120, 120, 120)

     Estimated max dynamical RAM per process >       1.08 GB

     Estimated total dynamical RAM >       4.33 GB

     Initial potential from superposition of free atoms

     starting charge  255.96421, renormalised to  256.00000
     Starting wfc are  256 randomized atomic wfcs
     Checking if some PAW data can be deallocated... 

     total cpu time spent up to now is       41.1 secs

     Self-consistent Calculation

     iteration #  1     ecut=    70.00 Ry     beta= 0.70
     Davidson diagonalization with overlap
     ethr =  1.00E-02,  avg # of iterations =  2.0

     Threshold (ethr) on eigenvalues was too large:
     Diagonalizing with lowered threshold

     Davidson diagonalization with overlap
     ethr =  6.98E-04,  avg # of iterations =  1.0

     total cpu time spent up to now is      155.7 secs

     total energy              =   -2990.46250065 Ry
     Harris-Foulkes estimate   =   -2990.88041689 Ry
     estimated scf accuracy    <       1.76631966 Ry

     iteration #  2     ecut=    70.00 Ry     beta= 0.70
     Davidson diagonalization with overlap
     ethr =  6.90E-04,  avg # of iterations =  1.0

     total cpu time spent up to now is      204.5 secs

     total energy              =   -2990.52627912 Ry
     Harris-Foulkes estimate   =   -2990.53059274 Ry
     estimated scf accuracy    <       0.07829403 Ry

     iteration #  3     ecut=    70.00 Ry     beta= 0.70
     Davidson diagonalization with overlap
     ethr =  3.06E-05,  avg # of iterations =  2.5

     total cpu time spent up to now is      261.9 secs

     total energy              =   -2990.53496771 Ry
     Harris-Foulkes estimate   =   -2990.53564890 Ry
     estimated scf accuracy    <       0.00180154 Ry

     iteration #  4     ecut=    70.00 Ry     beta= 0.70
     Davidson diagonalization with overlap
     ethr =  7.04E-07,  avg # of iterations =  4.0

     total cpu time spent up to now is      344.8 secs

     total energy              =   -2990.53552114 Ry
     Harris-Foulkes estimate   =   -2990.53627689 Ry
     estimated scf accuracy    <       0.00215415 Ry

     iteration #  5     ecut=    70.00 Ry     beta= 0.70
     Davidson diagonalization with overlap
     ethr =  7.04E-07,  avg # of iterations =  3.0

     total cpu time spent up to now is      406.5 secs

     total energy              =   -2990.53588289 Ry
     Harris-Foulkes estimate   =   -2990.53595547 Ry
     estimated scf accuracy    <       0.00020906 Ry

     iteration #  6     ecut=    70.00 Ry     beta= 0.70
     Davidson diagonalization with overlap
     ethr =  8.17E-08,  avg # of iterations =  3.0

     total cpu time spent up to now is      471.1 secs

     total energy              =   -2990.53591596 Ry
     Harris-Foulkes estimate   =   -2990.53593917 Ry
     estimated scf accuracy    <       0.00006560 Ry

     iteration #  7     ecut=    70.00 Ry     beta= 0.70
     Davidson diagonalization with overlap
     ethr =  2.56E-08,  avg # of iterations =  2.0

     total cpu time spent up to now is      531.1 secs

     total energy              =   -2990.53592706 Ry
     Harris-Foulkes estimate   =   -2990.53592757 Ry
     estimated scf accuracy    <       0.00000097 Ry

     iteration #  8     ecut=    70.00 Ry     beta= 0.70
     Davidson diagonalization with overlap
     ethr =  3.81E-10,  avg # of iterations =  3.0

     total cpu time spent up to now is      619.6 secs

     total energy              =   -2990.53592795 Ry
     Harris-Foulkes estimate   =   -2990.53592821 Ry
     estimated scf accuracy    <       0.00000043 Ry

     iteration #  9     ecut=    70.00 Ry     beta= 0.70
     Davidson diagonalization with overlap
     ethr =  1.66E-10,  avg # of iterations =  3.0

     total cpu time spent up to now is      680.7 secs

     total energy              =   -2990.53592791 Ry
     Harris-Foulkes estimate   =   -2990.53592804 Ry
     estimated scf accuracy    <       0.00000019 Ry

     iteration # 10     ecut=    70.00 Ry     beta= 0.70
     Davidson diagonalization with overlap
     ethr =  7.24E-11,  avg # of iterations =  2.0

     total cpu time spent up to now is      740.0 secs

     total energy              =   -2990.53592787 Ry
     Harris-Foulkes estimate   =   -2990.53592794 Ry
     estimated scf accuracy    <       0.00000003 Ry

     iteration # 11     ecut=    70.00 Ry     beta= 0.70
     Davidson diagonalization with overlap
     ethr =  1.08E-11,  avg # of iterations =  3.0

     total cpu time spent up to now is      804.7 secs

     total energy              =   -2990.53592788 Ry
     Harris-Foulkes estimate   =   -2990.53592788 Ry
     estimated scf accuracy    <          3.8E-09 Ry

     iteration # 12     ecut=    70.00 Ry     beta= 0.70
     Davidson diagonalization with overlap
     ethr =  1.47E-12,  avg # of iterations =  3.0

     total cpu time spent up to now is      876.1 secs

     total energy              =   -2990.53592788 Ry
     Harris-Foulkes estimate   =   -2990.53592788 Ry
     estimated scf accuracy    <          1.1E-09 Ry

     iteration # 13     ecut=    70.00 Ry     beta= 0.70
     Davidson diagonalization with overlap
     ethr =  4.37E-13,  avg # of iterations =  3.0

     total cpu time spent up to now is      942.6 secs

     End of self-consistent calculation

          k = 0.2500 0.2500 0.2500 ( 87251 PWs)   bands (ev):

    -5.6250  -5.0989  -5.0970  -5.0931  -4.5994  -4.5973  -4.5934  -4.1632
    -4.0663  -4.0641  -4.0597  -3.6528  -3.6492  -3.6483  -3.6473  -3.6443
    -3.6404  -3.4589  -3.4548  -3.4505  -2.9627  -2.9595  -2.9535  -2.5930
    -2.5892  -2.5857  -2.4279  -2.4232  -2.4216  -2.4210  -2.4180  -2.4130
    -0.8876  -0.8813  -0.8788  -0.8783  -0.8747  -0.8692  -0.7841  -0.7804
    -0.7767  -0.6673  -0.6623  -0.6568  -0.5801  -0.5773  -0.5708   0.1263
     0.2027   0.2068   0.2092   0.2104   0.2153   0.2201   1.0805   1.0847
     1.0909   1.4140   1.4181   1.4228   2.0239   2.0277   2.0283   2.0295
     2.0315   2.0338   2.0856   2.0878   2.0915   2.6377   2.6402   2.6423
     2.7376   2.7392   2.7417   2.7444   2.7470   2.7486   2.7927   2.7963
     2.8006   3.1031   3.1045   3.1068   3.1071   3.1101   3.1138   3.3691
     3.3715   3.3739   3.3821   3.3869   3.3905   3.7317   3.7350   3.7365
     3.7529   3.7563   3.7606   3.8362   3.8389   3.8435   4.1073   4.1119
     4.1134   4.1144   4.1161   4.1224   4.1500   4.1530   4.1582   4.4131
     4.4675   4.4706   4.4746   4.7106   4.7138   4.7187   4.7747   4.7783
     4.7841   4.9319   4.9405   5.2384   5.2429   5.2493   5.7191   5.7289

          k =-0.2500-0.2500 0.2500 ( 87251 PWs)   bands (ev):

    -5.6250  -5.0997  -5.0956  -5.0937  -4.5999  -4.5960  -4.5944  -4.1631
    -4.0668  -4.0624  -4.0609  -3.6549  -3.6500  -3.6473  -3.6469  -3.6449
    -3.6384  -3.4590  -3.4548  -3.4504  -2.9616  -2.9578  -2.9563  -2.5930
    -2.5892  -2.5857  -2.4289  -2.4231  -2.4212  -2.4208  -2.4188  -2.4118
    -0.8868  -0.8812  -0.8791  -0.8779  -0.8754  -0.8694  -0.7841  -0.7804
    -0.7768  -0.6673  -0.6623  -0.6569  -0.5833  -0.5767  -0.5683   0.1263
     0.2034   0.2069   0.2097   0.2112   0.2144   0.2190   1.0793   1.0852
     1.0915   1.4140   1.4184   1.4225   2.0237   2.0272   2.0281   2.0302
     2.0317   2.0339   2.0858   2.0877   2.0912   2.6379   2.6399   2.6425
     2.7374   2.7400   2.7419   2.7447   2.7458   2.7486   2.7921   2.7972
     2.8004   3.1014   3.1060   3.1075   3.1079   3.1095   3.1132   3.3683
     3.3724   3.3737   3.3825   3.3868   3.3900   3.7314   3.7346   3.7376
     3.7525   3.7571   3.7601   3.8372   3.8390   3.8423   4.1058   4.1121
     4.1141   4.1148   4.1160   4.1224   4.1510   4.1530   4.1572   4.4129
     4.4674   4.4716   4.4741   4.7118   4.7139   4.7177   4.7730   4.7785
     4.7853   4.9318   4.9406   5.2398   5.2429   5.2480   5.7191   5.7289

          k =-0.2500 0.2500-0.2500 ( 87251 PWs)   bands (ev):

    -5.6251  -5.0993  -5.0960  -5.0933  -4.5999  -4.5966  -4.5938  -4.1641
    -4.0671  -4.0634  -4.0606  -3.6531  -3.6499  -3.6484  -3.6474  -3.6431
    -3.6376  -3.4577  -3.4554  -3.4492  -2.9653  -2.9595  -2.9564  -2.5926
    -2.5909  -2.5834  -2.4258  -2.4243  -2.4227  -2.4214  -2.4161  -2.4125
    -0.8850  -0.8820  -0.8805  -0.8785  -0.8755  -0.8713  -0.7857  -0.7831
    -0.7751  -0.6684  -0.6629  -0.6605  -0.5776  -0.5742  -0.5635   0.1300
     0.2014   0.2056   0.2078   0.2105   0.2122   0.2181   1.0828   1.0855
     1.0949   1.4151   1.4178   1.4219   2.0251   2.0264   2.0287   2.0298
     2.0308   2.0332   2.0843   2.0874   2.0898   2.6399   2.6412   2.6450
     2.7362   2.7381   2.7411   2.7428   2.7447   2.7477   2.7913   2.7945
     2.7973   3.1023   3.1066   3.1071   3.1080   3.1094   3.1129   3.3687
     3.3698   3.3725   3.3825   3.3849   3.3880   3.7338   3.7366   3.7387
     3.7563   3.7590   3.7644   3.8356   3.8388   3.8405   4.1122   4.1137
     4.1141   4.1159   4.1199   4.1259   4.1493   4.1527   4.1553   4.4170
     4.4668   4.4679   4.4714   4.7094   4.7133   4.7148   4.7790   4.7808
     4.7913   4.9324   4.9375   5.2368   5.2416   5.2440   5.7188   5.7244

          k = 0.2500-0.2500-0.2500 ( 87251 PWs)   bands (ev):

    -5.6250  -5.0995  -5.0966  -5.0933  -4.5994  -4.5969  -4.5937  -4.1621
    -4.0659  -4.0634  -4.0598  -3.6553  -3.6522  -3.6469  -3.6449  -3.6440
    -3.6419  -3.4601  -3.4542  -3.4520  -2.9594  -2.9571  -2.9536  -2.5954
    -2.5877  -2.5858  -2.4299  -2.4241  -2.4211  -2.4187  -2.4171  -2.4156
    -0.8881  -0.8809  -0.8780  -0.8760  -0.8730  -0.8709  -0.7857  -0.7776
    -0.7755  -0.6640  -0.6615  -0.6556  -0.5858  -0.5797  -0.5755   0.1225
     0.2029   0.2085   0.2115   0.2134   0.2170   0.2203   1.0782   1.0829
     1.0877   1.4166   1.4170   1.4214   2.0249   2.0271   2.0286   2.0297
     2.0307   2.0345   2.0869   2.0900   2.0915   2.6353   2.6389   2.6402
     2.7401   2.7411   2.7424   2.7453   2.7468   2.7504   2.7944   2.7998
     2.8024   3.1022   3.1043   3.1079   3.1089   3.1096   3.1115   3.3710
     3.3733   3.3742   3.3858   3.3861   3.3907   3.7294   3.7326   3.7356
     3.7489   3.7549   3.7566   3.8380   3.8406   3.8434   4.1026   4.1080
     4.1120   4.1147   4.1155   4.1159   4.1522   4.1549   4.1582   4.4091
     4.4709   4.4740   4.4749   4.7133   4.7162   4.7198   4.7703   4.7738
     4.7782   4.9349   4.9400   5.2423   5.2457   5.2510   5.7235   5.7292

     highest occupied level (ev):     5.7292

!    total energy              =   -2990.53592788 Ry
     Harris-Foulkes estimate   =   -2990.53592788 Ry
     estimated scf accuracy    <          3.0E-10 Ry

     total all-electron energy =    -37124.671481 Ry

     The total energy is the sum of the following terms:

     one-electron contribution =     178.60401163 Ry
     hartree contribution      =      35.70180297 Ry
     xc contribution           =    -391.44049885 Ry
     ewald contribution        =    -534.00623372 Ry
     one-center paw contrib.   =   -2279.39500992 Ry

     convergence has been achieved in  13 iterations

     Forces acting on atoms (cartesian axes, Ry/au):

     atom    1 type  1   force =    -0.01585668   -0.00000108    0.00000967
     atom    2 type  1   force =     0.00003161    0.00000064   -0.00000895
     atom    3 type  1   force =     0.00016390    0.00052432    0.00010931
     atom    4 type  1   force =     0.00010688    0.00052875   -0.00011471
     atom    5 type  1   force =     0.00004486    0.00000079    0.00000908
     atom    6 type  1   force =    -0.00001664   -0.00000001   -0.00001003
     atom    7 type  1   force =    -0.00058848    0.00052855    0.00011397
     atom    8 type  1   force =    -0.00008553    0.00052337   -0.00010961
     atom    9 type  1   force =    -0.00075573   -0.00011735    0.00000441
     atom   10 type  1   force =     0.00022685   -0.00022197    0.00011955
     atom   11 type  1   force =    -0.00029103   -0.00012759   -0.00022425
     atom   12 type  1   force =    -0.00023276   -0.00022797    0.00010411
     atom   13 type  1   force =    -0.00044705   -0.00015171    0.00010007
     atom   14 type  1   force =    -0.00007662   -0.00005135    0.00001887
     atom   15 type  1   force =    -0.00060420   -0.00015647   -0.00012294
     atom   16 type  1   force =     0.00007514   -0.00005243    0.00000039
     atom   17 type  1   force =     0.00023142   -0.00013179    0.00022703
     atom   18 type  1   force =     0.00023791   -0.00010673   -0.00023288
     atom   19 type  1   force =     0.00004299    0.01585670   -0.00007663
     atom   20 type  1   force =     0.00004199   -0.00006452    0.00007658
     atom   21 type  1   force =     0.00023058    0.00011571   -0.00022665
     atom   22 type  1   force =     0.00023775    0.00008961    0.00023310
     atom   23 type  1   force =     0.00004272   -0.00004394    0.00007659
     atom   24 type  1   force =     0.00004203    0.00048494   -0.00007604
     atom   25 type  1   force =     0.00012146   -0.00000423   -0.00033702
     atom   26 type  1   force =     0.00022807   -0.00027520   -0.00003673
     atom   27 type  1   force =     0.00011707   -0.00046486    0.00034163
     atom   28 type  1   force =     0.00022847    0.00019050    0.00003729
     atom   29 type  1   force =     0.00015248   -0.00030768    0.00021750
     atom   30 type  1   force =     0.00005154    0.00003432   -0.00008715
     atom   31 type  1   force =     0.00015617   -0.00016113   -0.00022252
     atom   32 type  1   force =     0.00005163   -0.00011866    0.00008621
     atom   33 type  1   force =     0.00246029   -0.00377991    0.00251380
     atom   34 type  1   force =     0.00029225    0.00008648    0.00007960
     atom   35 type  1   force =     0.00006384    0.00003958    0.00006236
     atom   36 type  1   force =    -0.00003417    0.00002263    0.00006745
     atom   37 type  1   force =     0.00007795    0.00008430    0.00006371
     atom   38 type  1   force =    -0.00003320   -0.00021335    0.00007766
     atom   39 type  1   force =     0.00001528    0.00000964    0.00006489
     atom   40 type  1   force =     0.00395969    0.00272603    0.00273563
     atom   41 type  1   force =    -0.00005109   -0.00002557    0.00000027
     atom   42 type  1   force =     0.00390380   -0.00273081   -0.00267793
     atom   43 type  1   force =    -0.00267847   -0.00395262    0.00267741
     atom   44 type  1   force =    -0.00009934    0.00002253   -0.00000053
     atom   45 type  1   force =    -0.00000030   -0.00005207   -0.00000054
     atom   46 type  1   force =    -0.00009207   -0.00002830   -0.00000760
     atom   47 type  1   force =    -0.00007218    0.00002955    0.00000814
     atom   48 type  1   force =     0.00022772   -0.00028327    0.00000057
     atom   49 type  1   force =    -0.00254091   -0.00384827   -0.00242995
     atom   50 type  1   force =    -0.00000932    0.00003229   -0.00002220
     atom   51 type  1   force =     0.00377230   -0.00246899    0.00244371
     atom   52 type  1   force =    -0.00003942   -0.00006551    0.00000850
     atom   53 type  1   force =     0.00020094    0.00003172   -0.00001015
     atom   54 type  1   force =    -0.00004992   -0.00028307    0.00000287
     atom   55 type  1   force =    -0.00008756   -0.00008000    0.00001165
     atom   56 type  1   force =    -0.00000281   -0.00000737   -0.00000419
     atom   57 type  1   force =    -0.00002080    0.00006459   -0.00007584
     atom   58 type  1   force =     0.00005251    0.00000369   -0.00005331
     atom   59 type  1   force =     0.00295662   -0.00390127   -0.00273198
     atom   60 type  1   force =     0.00001675    0.00009112   -0.00008074
     atom   61 type  1   force =     0.00383751    0.00245512   -0.00250619
     atom   62 type  1   force =     0.00001859    0.00005946   -0.00006873
     atom   63 type  1   force =    -0.00000878    0.00009920   -0.00009055
     atom   64 type  1   force =     0.00005555   -0.00022904   -0.00005706

     Total force =     0.027156     Total SCF correction =     0.000032


     Computing stress (Cartesian axis) and pressure

          total   stress  (Ry/bohr**3)                   (kbar)     P=    0.12
   0.00000074   0.00000000  -0.00000238          0.11      0.00     -0.35
   0.00000000   0.00000074   0.00000238          0.00      0.11      0.35
  -0.00000238   0.00000238   0.00000089         -0.35      0.35      0.13


     init_run     :     40.19s CPU     40.98s WALL (       1 calls)
     electrons    :    881.14s CPU    901.55s WALL (       1 calls)
     forces       :     11.60s CPU     11.83s WALL (       1 calls)
     stress       :     56.59s CPU     56.89s WALL (       1 calls)

     Called by init_run:
     wfcinit      :     37.13s CPU     37.81s WALL (       1 calls)
     potinit      :      1.06s CPU      1.09s WALL (       1 calls)

     Called by electrons:
     c_bands      :    732.16s CPU    749.36s WALL (      14 calls)
     sum_band     :    132.15s CPU    134.50s WALL (      14 calls)
     v_of_rho     :      5.48s CPU      5.58s WALL (      14 calls)
     newd         :      2.96s CPU      3.75s WALL (      14 calls)
     PAW_pot      :      8.19s CPU      8.20s WALL (      14 calls)
     mix_rho      :      1.22s CPU      1.25s WALL (      14 calls)

     Called by c_bands:
     init_us_2    :      7.84s CPU      7.88s WALL (     124 calls)
     cegterg      :    717.39s CPU    734.52s WALL (      56 calls)

     Called by sum_band:
     sum_band:bec :      0.02s CPU      0.02s WALL (      56 calls)
     addusdens    :      3.53s CPU      4.34s WALL (      14 calls)

     Called by *egterg:
     h_psi        :    637.36s CPU    648.13s WALL (     202 calls)
     s_psi        :     36.88s CPU     36.86s WALL (     202 calls)
     g_psi        :      1.26s CPU      1.28s WALL (     142 calls)
     cdiaghg      :      4.68s CPU      4.71s WALL (     194 calls)

     Called by h_psi:
     h_psi:pot    :    633.30s CPU    644.01s WALL (     202 calls)
     h_psi:calbec :     36.48s CPU     36.48s WALL (     202 calls)
     vloc_psi     :    560.14s CPU    570.80s WALL (     202 calls)
     add_vuspsi   :     36.68s CPU     36.72s WALL (     202 calls)

     General routines
     calbec       :     53.42s CPU     53.44s WALL (     278 calls)
     fft          :      4.58s CPU      4.81s WALL (     209 calls)
     fftw         :    565.51s CPU    577.65s WALL (   49052 calls)

     Parallel routines
     fft_scatt_xy :     95.92s CPU     96.12s WALL (   49261 calls)
     fft_scatt_yz :    104.60s CPU    110.63s WALL (   49261 calls)

     PWSCF        : 16m29.62s CPU    16m51.38s WALL


   This run was terminated on:   2:34:56  25Oct2021            

=------------------------------------------------------------------------------=
   JOB DONE.
=------------------------------------------------------------------------------=
Note: The following floating-point exceptions are signalling: IEEE_UNDERFLOW_FLAG IEEE_DENORMAL
