
     Program PWSCF v.6.2 (svn rev. 13949:13950) starts on 24Oct2021 at 23:33:48 

     This program is part of the open-source Quantum ESPRESSO suite
     for quantum simulation of materials; please cite
         "P. Giannozzi et al., J. Phys.:Condens. Matter 21 395502 (2009);
         "P. Giannozzi et al., J. Phys.:Condens. Matter 29 465901 (2017);
          URL http://www.quantum-espresso.org", 
     in publications or presentations arising from this work. More details at
     http://www.quantum-espresso.org/quote

     Parallel version (MPI), running on     4 processors

     MPI processes distributed on     1 nodes
     R & G space division:  proc/nbgrp/npool/nimage =       4
     Reading input from headeradd_supercell-00037.in

     Current dimensions of program PWSCF are:
     Max number of different atomic species (ntypx) = 10
     Max number of k-points (npk) =  40000
     Max angular momentum in pseudopotentials (lmaxx) =  3
     Message from routine iosys:
     minimal I/O required, wf_collect reset to FALSE
               file Si.pbe-n-kjpaw_psl.0.1.UPF: wavefunction(s)  3S renormalized

     Subspace diagonalization in iterative solution of the eigenvalue problem:
     a serial algorithm will be used


     Parallelization info
     --------------------
     sticks:   dense  smooth     PW     G-vecs:    dense   smooth      PW
     Min        2372    2372    612               174341   174341   22844
     Max        2374    2374    613               174344   174344   22847
     Sum        9493    9493   2449               697371   697371   91383



     bravais-lattice index     =            0
     lattice parameter (alat)  =      20.6591  a.u.
     unit-cell volume          =    8817.2783 (a.u.)^3
     number of atoms/cell      =           64
     number of atomic types    =            1
     number of electrons       =       256.00
     number of Kohn-Sham states=          128
     kinetic-energy cutoff     =      70.0000  Ry
     charge density cutoff     =     280.0000  Ry
     convergence threshold     =      1.0E-09
     mixing beta               =       0.7000
     number of iterations used =            8  plain     mixing
     Exchange-correlation      =  SLA  PW   PBX  PBC ( 1  4  3  4 0 0)

     celldm(1)=  20.659106  celldm(2)=   0.000000  celldm(3)=   0.000000
     celldm(4)=   0.000000  celldm(5)=   0.000000  celldm(6)=   0.000000

     crystal axes: (cart. coord. in units of alat)
               a(1) = (   1.000000   0.000000   0.000000 )  
               a(2) = (   0.000000   1.000000   0.000000 )  
               a(3) = (   0.000000   0.000000   1.000000 )  

     reciprocal axes: (cart. coord. in units 2 pi/alat)
               b(1) = (  1.000000  0.000000  0.000000 )  
               b(2) = (  0.000000  1.000000  0.000000 )  
               b(3) = (  0.000000  0.000000  1.000000 )  


     PseudoPot. # 1 for Si read from file:
     /home/uezono/pseudo/Si.pbe-n-kjpaw_psl.0.1.UPF
     MD5 check sum: 0810ef13ebffcf5dbabd57b297315270
     Pseudo is Projector augmented-wave + core cor, Zval =  4.0
     Generated using "atomic" code by A. Dal Corso  v.5.0.2 svn rev. 9415
     Shape of augmentation charge: PSQ
     Using radial grid of 1141 points,  4 beta functions with: 
                l(1) =   0
                l(2) =   0
                l(3) =   1
                l(4) =   1
     Q(r) pseudized with 0 coefficients 


     atomic species   valence    mass     pseudopotential
        Si             4.00    28.08550     Si( 1.00)

     No symmetry found



   Cartesian axes

     site n.     atom                  positions (alat units)
         1           Si  tau(   1) = (   0.4404043   0.4375000   0.4375000  )
         2           Si  tau(   2) = (   0.9375000   0.4375000   0.4375000  )
         3           Si  tau(   3) = (   0.4375000   0.9375000   0.4375000  )
         4           Si  tau(   4) = (   0.9375000   0.9375000   0.4375000  )
         5           Si  tau(   5) = (   0.4375000   0.4375000   0.9375000  )
         6           Si  tau(   6) = (   0.9375000   0.4375000   0.9375000  )
         7           Si  tau(   7) = (   0.4375000   0.9375000   0.9375000  )
         8           Si  tau(   8) = (   0.9375000   0.9375000   0.9375000  )
         9           Si  tau(   9) = (   0.4375000   0.1875000   0.1875000  )
        10           Si  tau(  10) = (   0.9375000   0.1875000   0.1875000  )
        11           Si  tau(  11) = (   0.4375000   0.6875000   0.1875000  )
        12           Si  tau(  12) = (   0.9375000   0.6875000   0.1875000  )
        13           Si  tau(  13) = (   0.4375000   0.1875000   0.6875000  )
        14           Si  tau(  14) = (   0.9375000   0.1875000   0.6875000  )
        15           Si  tau(  15) = (   0.4375000   0.6875000   0.6875000  )
        16           Si  tau(  16) = (   0.9375000   0.6875000   0.6875000  )
        17           Si  tau(  17) = (   0.1875000   0.4375000   0.1845957  )
        18           Si  tau(  18) = (   0.6875000   0.4375000   0.1875000  )
        19           Si  tau(  19) = (   0.1875000   0.9375000   0.1875000  )
        20           Si  tau(  20) = (   0.6875000   0.9375000   0.1875000  )
        21           Si  tau(  21) = (   0.1875000   0.4375000   0.6875000  )
        22           Si  tau(  22) = (   0.6875000   0.4375000   0.6875000  )
        23           Si  tau(  23) = (   0.1875000   0.9375000   0.6875000  )
        24           Si  tau(  24) = (   0.6875000   0.9375000   0.6875000  )
        25           Si  tau(  25) = (   0.1875000   0.1875000   0.4375000  )
        26           Si  tau(  26) = (   0.6875000   0.1875000   0.4375000  )
        27           Si  tau(  27) = (   0.1875000   0.6875000   0.4375000  )
        28           Si  tau(  28) = (   0.6875000   0.6875000   0.4375000  )
        29           Si  tau(  29) = (   0.1875000   0.1875000   0.9375000  )
        30           Si  tau(  30) = (   0.6875000   0.1875000   0.9375000  )
        31           Si  tau(  31) = (   0.1875000   0.6875000   0.9375000  )
        32           Si  tau(  32) = (   0.6875000   0.6875000   0.9375000  )
        33           Si  tau(  33) = (   0.0625000   0.0625000   0.0625000  )
        34           Si  tau(  34) = (   0.5625000   0.0625000   0.0625000  )
        35           Si  tau(  35) = (   0.0625000   0.5625000   0.0625000  )
        36           Si  tau(  36) = (   0.5625000   0.5625000   0.0625000  )
        37           Si  tau(  37) = (   0.0625000   0.0625000   0.5625000  )
        38           Si  tau(  38) = (   0.5625000   0.0625000   0.5625000  )
        39           Si  tau(  39) = (   0.0625000   0.5625000   0.5625000  )
        40           Si  tau(  40) = (   0.5625000   0.5625000   0.5625000  )
        41           Si  tau(  41) = (   0.0625000   0.3125000   0.3125000  )
        42           Si  tau(  42) = (   0.5625000   0.3125000   0.3125000  )
        43           Si  tau(  43) = (   0.0625000   0.8125000   0.3125000  )
        44           Si  tau(  44) = (   0.5625000   0.8125000   0.3125000  )
        45           Si  tau(  45) = (   0.0625000   0.3125000   0.8125000  )
        46           Si  tau(  46) = (   0.5625000   0.3125000   0.8125000  )
        47           Si  tau(  47) = (   0.0625000   0.8125000   0.8125000  )
        48           Si  tau(  48) = (   0.5625000   0.8125000   0.8125000  )
        49           Si  tau(  49) = (   0.3125000   0.0625000   0.3125000  )
        50           Si  tau(  50) = (   0.8125000   0.0625000   0.3125000  )
        51           Si  tau(  51) = (   0.3125000   0.5625000   0.3125000  )
        52           Si  tau(  52) = (   0.8125000   0.5625000   0.3125000  )
        53           Si  tau(  53) = (   0.3125000   0.0625000   0.8125000  )
        54           Si  tau(  54) = (   0.8125000   0.0625000   0.8125000  )
        55           Si  tau(  55) = (   0.3125000   0.5625000   0.8125000  )
        56           Si  tau(  56) = (   0.8125000   0.5625000   0.8125000  )
        57           Si  tau(  57) = (   0.3125000   0.3125000   0.0625000  )
        58           Si  tau(  58) = (   0.8125000   0.3125000   0.0625000  )
        59           Si  tau(  59) = (   0.3125000   0.8125000   0.0625000  )
        60           Si  tau(  60) = (   0.8125000   0.8125000   0.0625000  )
        61           Si  tau(  61) = (   0.3125000   0.3125000   0.5625000  )
        62           Si  tau(  62) = (   0.8125000   0.3125000   0.5625000  )
        63           Si  tau(  63) = (   0.3125000   0.8125000   0.5625000  )
        64           Si  tau(  64) = (   0.8125000   0.8125000   0.5625000  )

     number of k points=     4
                       cart. coord. in units 2pi/alat
        k(    1) = (   0.2500000   0.2500000   0.2500000), wk =   0.5000000
        k(    2) = (  -0.2500000  -0.2500000   0.2500000), wk =   0.5000000
        k(    3) = (  -0.2500000   0.2500000  -0.2500000), wk =   0.5000000
        k(    4) = (   0.2500000  -0.2500000  -0.2500000), wk =   0.5000000

     Dense  grid:   697371 G-vectors     FFT dimensions: ( 120, 120, 120)

     Estimated max dynamical RAM per process >       1.08 GB

     Estimated total dynamical RAM >       4.33 GB

     Initial potential from superposition of free atoms

     starting charge  255.96421, renormalised to  256.00000
     Starting wfc are  256 randomized atomic wfcs
     Checking if some PAW data can be deallocated... 

     total cpu time spent up to now is       41.1 secs

     Self-consistent Calculation

     iteration #  1     ecut=    70.00 Ry     beta= 0.70
     Davidson diagonalization with overlap
     ethr =  1.00E-02,  avg # of iterations =  2.0

     Threshold (ethr) on eigenvalues was too large:
     Diagonalizing with lowered threshold

     Davidson diagonalization with overlap
     ethr =  6.98E-04,  avg # of iterations =  1.0

     total cpu time spent up to now is      155.6 secs

     total energy              =   -2990.46246067 Ry
     Harris-Foulkes estimate   =   -2990.88044189 Ry
     estimated scf accuracy    <       1.76654086 Ry

     iteration #  2     ecut=    70.00 Ry     beta= 0.70
     Davidson diagonalization with overlap
     ethr =  6.90E-04,  avg # of iterations =  1.0

     total cpu time spent up to now is      204.3 secs

     total energy              =   -2990.52626737 Ry
     Harris-Foulkes estimate   =   -2990.53058064 Ry
     estimated scf accuracy    <       0.07826697 Ry

     iteration #  3     ecut=    70.00 Ry     beta= 0.70
     Davidson diagonalization with overlap
     ethr =  3.06E-05,  avg # of iterations =  2.5

     total cpu time spent up to now is      261.7 secs

     total energy              =   -2990.53495753 Ry
     Harris-Foulkes estimate   =   -2990.53563251 Ry
     estimated scf accuracy    <       0.00179696 Ry

     iteration #  4     ecut=    70.00 Ry     beta= 0.70
     Davidson diagonalization with overlap
     ethr =  7.02E-07,  avg # of iterations =  3.5

     total cpu time spent up to now is      344.0 secs

     total energy              =   -2990.53553061 Ry
     Harris-Foulkes estimate   =   -2990.53623881 Ry
     estimated scf accuracy    <       0.00198206 Ry

     iteration #  5     ecut=    70.00 Ry     beta= 0.70
     Davidson diagonalization with overlap
     ethr =  7.02E-07,  avg # of iterations =  3.0

     total cpu time spent up to now is      405.2 secs

     total energy              =   -2990.53586769 Ry
     Harris-Foulkes estimate   =   -2990.53594306 Ry
     estimated scf accuracy    <       0.00021783 Ry

     iteration #  6     ecut=    70.00 Ry     beta= 0.70
     Davidson diagonalization with overlap
     ethr =  8.51E-08,  avg # of iterations =  3.0

     total cpu time spent up to now is      469.3 secs

     total energy              =   -2990.53590250 Ry
     Harris-Foulkes estimate   =   -2990.53592377 Ry
     estimated scf accuracy    <       0.00005867 Ry

     iteration #  7     ecut=    70.00 Ry     beta= 0.70
     Davidson diagonalization with overlap
     ethr =  2.29E-08,  avg # of iterations =  2.0

     total cpu time spent up to now is      529.7 secs

     total energy              =   -2990.53591293 Ry
     Harris-Foulkes estimate   =   -2990.53591371 Ry
     estimated scf accuracy    <       0.00000163 Ry

     iteration #  8     ecut=    70.00 Ry     beta= 0.70
     Davidson diagonalization with overlap
     ethr =  6.36E-10,  avg # of iterations =  3.0

     total cpu time spent up to now is      614.3 secs

     total energy              =   -2990.53591389 Ry
     Harris-Foulkes estimate   =   -2990.53591416 Ry
     estimated scf accuracy    <       0.00000049 Ry

     iteration #  9     ecut=    70.00 Ry     beta= 0.70
     Davidson diagonalization with overlap
     ethr =  1.92E-10,  avg # of iterations =  3.0

     total cpu time spent up to now is      675.9 secs

     total energy              =   -2990.53591383 Ry
     Harris-Foulkes estimate   =   -2990.53591400 Ry
     estimated scf accuracy    <       0.00000022 Ry

     iteration # 10     ecut=    70.00 Ry     beta= 0.70
     Davidson diagonalization with overlap
     ethr =  8.65E-11,  avg # of iterations =  2.0

     total cpu time spent up to now is      735.1 secs

     total energy              =   -2990.53591380 Ry
     Harris-Foulkes estimate   =   -2990.53591387 Ry
     estimated scf accuracy    <       0.00000002 Ry

     iteration # 11     ecut=    70.00 Ry     beta= 0.70
     Davidson diagonalization with overlap
     ethr =  9.04E-12,  avg # of iterations =  3.0

     total cpu time spent up to now is      802.9 secs

     total energy              =   -2990.53591381 Ry
     Harris-Foulkes estimate   =   -2990.53591381 Ry
     estimated scf accuracy    <          3.9E-09 Ry

     iteration # 12     ecut=    70.00 Ry     beta= 0.70
     Davidson diagonalization with overlap
     ethr =  1.54E-12,  avg # of iterations =  3.0

     total cpu time spent up to now is      877.3 secs

     total energy              =   -2990.53591381 Ry
     Harris-Foulkes estimate   =   -2990.53591381 Ry
     estimated scf accuracy    <          2.9E-09 Ry

     iteration # 13     ecut=    70.00 Ry     beta= 0.70
     Davidson diagonalization with overlap
     ethr =  1.12E-12,  avg # of iterations =  3.0

     total cpu time spent up to now is      939.5 secs

     End of self-consistent calculation

          k = 0.2500 0.2500 0.2500 ( 87251 PWs)   bands (ev):

    -5.6251  -5.1001  -5.0970  -5.0920  -4.6003  -4.5974  -4.5925  -4.1632
    -4.0670  -4.0642  -4.0589  -3.6558  -3.6495  -3.6487  -3.6463  -3.6452
    -3.6368  -3.4594  -3.4549  -3.4501  -2.9620  -2.9600  -2.9536  -2.5943
    -2.5892  -2.5843  -2.4293  -2.4230  -2.4224  -2.4200  -2.4185  -2.4111
    -0.8872  -0.8814  -0.8788  -0.8774  -0.8753  -0.8698  -0.7858  -0.7805
    -0.7748  -0.6678  -0.6623  -0.6564  -0.5818  -0.5759  -0.5706   0.1262
     0.2012   0.2067   0.2105   0.2112   0.2147   0.2202   1.0802   1.0850
     1.0908   1.4142   1.4181   1.4227   2.0244   2.0269   2.0275   2.0296
     2.0309   2.0348   2.0861   2.0881   2.0912   2.6372   2.6401   2.6430
     2.7371   2.7392   2.7421   2.7438   2.7476   2.7484   2.7928   2.7959
     2.8014   3.1021   3.1043   3.1067   3.1073   3.1096   3.1154   3.3698
     3.3717   3.3731   3.3822   3.3867   3.3902   3.7305   3.7351   3.7375
     3.7520   3.7564   3.7617   3.8367   3.8390   3.8427   4.1058   4.1121
     4.1131   4.1145   4.1170   4.1228   4.1507   4.1531   4.1577   4.4132
     4.4687   4.4711   4.4731   4.7113   4.7141   4.7179   4.7745   4.7786
     4.7839   4.9319   4.9406   5.2394   5.2431   5.2483   5.7191   5.7289

          k =-0.2500-0.2500 0.2500 ( 87251 PWs)   bands (ev):

    -5.6251  -5.0995  -5.0984  -5.0909  -4.6000  -4.5989  -4.5915  -4.1642
    -4.0671  -4.0656  -4.0586  -3.6509  -3.6500  -3.6492  -3.6482  -3.6456
    -3.6355  -3.4577  -3.4549  -3.4497  -2.9640  -2.9620  -2.9553  -2.5923
    -2.5889  -2.5853  -2.4254  -2.4237  -2.4225  -2.4210  -2.4198  -2.4103
    -0.8841  -0.8832  -0.8801  -0.8782  -0.8752  -0.8716  -0.7850  -0.7809
    -0.7783  -0.6679  -0.6628  -0.6612  -0.5775  -0.5718  -0.5659   0.1300
     0.2039   0.2042   0.2083   0.2086   0.2147   0.2158   1.0830   1.0883
     1.0920   1.4155   1.4186   1.4207   2.0259   2.0270   2.0272   2.0296
     2.0297   2.0339   2.0849   2.0876   2.0895   2.6399   2.6427   2.6435
     2.7360   2.7395   2.7403   2.7432   2.7441   2.7468   2.7924   2.7936
     2.7975   3.1021   3.1050   3.1057   3.1076   3.1118   3.1141   3.3677
     3.3711   3.3725   3.3822   3.3853   3.3874   3.7338   3.7343   3.7416
     3.7566   3.7611   3.7613   3.8354   3.8383   3.8412   4.1114   4.1133
     4.1139   4.1164   4.1220   4.1248   4.1491   4.1524   4.1558   4.4172
     4.4647   4.4699   4.4713   4.7097   4.7122   4.7155   4.7790   4.7842
     4.7882   4.9324   4.9375   5.2372   5.2404   5.2449   5.7187   5.7244

          k =-0.2500 0.2500-0.2500 ( 87251 PWs)   bands (ev):

    -5.6251  -5.1001  -5.0970  -5.0920  -4.6003  -4.5974  -4.5925  -4.1632
    -4.0670  -4.0642  -4.0589  -3.6558  -3.6495  -3.6487  -3.6463  -3.6452
    -3.6368  -3.4594  -3.4549  -3.4501  -2.9620  -2.9600  -2.9536  -2.5943
    -2.5892  -2.5843  -2.4293  -2.4230  -2.4224  -2.4200  -2.4185  -2.4111
    -0.8872  -0.8814  -0.8788  -0.8774  -0.8753  -0.8698  -0.7858  -0.7805
    -0.7748  -0.6678  -0.6623  -0.6564  -0.5818  -0.5759  -0.5706   0.1262
     0.2012   0.2067   0.2105   0.2112   0.2147   0.2202   1.0802   1.0850
     1.0908   1.4142   1.4181   1.4227   2.0244   2.0269   2.0275   2.0296
     2.0309   2.0348   2.0861   2.0881   2.0912   2.6372   2.6401   2.6430
     2.7371   2.7392   2.7421   2.7438   2.7476   2.7484   2.7928   2.7959
     2.8014   3.1021   3.1043   3.1067   3.1073   3.1096   3.1154   3.3698
     3.3717   3.3731   3.3822   3.3867   3.3902   3.7305   3.7351   3.7375
     3.7520   3.7564   3.7617   3.8367   3.8390   3.8427   4.1058   4.1121
     4.1131   4.1145   4.1170   4.1228   4.1507   4.1531   4.1577   4.4132
     4.4687   4.4711   4.4731   4.7113   4.7141   4.7179   4.7745   4.7786
     4.7839   4.9319   4.9406   5.2394   5.2431   5.2483   5.7191   5.7289

          k = 0.2500-0.2500-0.2500 ( 87251 PWs)   bands (ev):

    -5.6250  -5.0996  -5.0968  -5.0930  -4.5995  -4.5972  -4.5934  -4.1622
    -4.0666  -4.0635  -4.0589  -3.6580  -3.6504  -3.6469  -3.6450  -3.6435
    -3.6413  -3.4596  -3.4549  -3.4520  -2.9598  -2.9582  -2.9520  -2.5934
    -2.5894  -2.5860  -2.4310  -2.4240  -2.4207  -2.4197  -2.4162  -2.4146
    -0.8846  -0.8838  -0.8780  -0.8757  -0.8725  -0.8723  -0.7830  -0.7795
    -0.7760  -0.6631  -0.6622  -0.6561  -0.5846  -0.5816  -0.5750   0.1226
     0.2059   0.2071   0.2103   0.2146   0.2168   0.2188   1.0767   1.0842
     1.0878   1.4152   1.4183   1.4216   2.0234   2.0264   2.0294   2.0301
     2.0316   2.0341   2.0882   2.0888   2.0916   2.6365   2.6376   2.6402
     2.7401   2.7405   2.7434   2.7443   2.7477   2.7500   2.7948   2.7997
     2.8023   3.1020   3.1052   3.1065   3.1080   3.1088   3.1139   3.3711
     3.3721   3.3755   3.3852   3.3871   3.3901   3.7310   3.7315   3.7356
     3.7512   3.7522   3.7566   3.8381   3.8418   3.8420   4.1045   4.1071
     4.1125   4.1136   4.1143   4.1165   4.1525   4.1564   4.1566   4.4091
     4.4708   4.4719   4.4771   4.7135   4.7178   4.7181   4.7690   4.7750
     4.7783   4.9350   4.9399   5.2425   5.2480   5.2486   5.7235   5.7292

     highest occupied level (ev):     5.7292

!    total energy              =   -2990.53591381 Ry
     Harris-Foulkes estimate   =   -2990.53591381 Ry
     estimated scf accuracy    <          9.0E-10 Ry

     total all-electron energy =    -37124.671467 Ry

     The total energy is the sum of the following terms:

     one-electron contribution =     178.60324595 Ry
     hartree contribution      =      35.70218369 Ry
     xc contribution           =    -391.44050443 Ry
     ewald contribution        =    -534.00582915 Ry
     one-center paw contrib.   =   -2279.39500987 Ry

     convergence has been achieved in  13 iterations

     Forces acting on atoms (cartesian axes, Ry/au):

     atom    1 type  1   force =    -0.01608886   -0.00010810   -0.00022322
     atom    2 type  1   force =     0.00024941    0.00010900   -0.00023141
     atom    3 type  1   force =     0.00013086   -0.00000870   -0.00004236
     atom    4 type  1   force =    -0.00008331    0.00001063   -0.00004186
     atom    5 type  1   force =     0.00028702   -0.00011480   -0.00023798
     atom    6 type  1   force =    -0.00023962    0.00011390   -0.00023814
     atom    7 type  1   force =    -0.00055171   -0.00000860   -0.00004281
     atom    8 type  1   force =     0.00010032    0.00000999   -0.00004282
     atom    9 type  1   force =    -0.00064328    0.00022904    0.00064303
     atom   10 type  1   force =    -0.00011006   -0.00010008    0.00053379
     atom   11 type  1   force =    -0.00041382    0.00022233    0.00041392
     atom   12 type  1   force =     0.00011405   -0.00010486    0.00051871
     atom   13 type  1   force =    -0.00053341   -0.00010009    0.00011000
     atom   14 type  1   force =    -0.00000920   -0.00001906    0.00000919
     atom   15 type  1   force =    -0.00051868   -0.00010472   -0.00011420
     atom   16 type  1   force =     0.00000911   -0.00001874   -0.00000870
     atom   17 type  1   force =     0.00022422   -0.00010848    0.01608884
     atom   18 type  1   force =     0.00023725   -0.00011467   -0.00028688
     atom   19 type  1   force =     0.00004323   -0.00000859   -0.00013063
     atom   20 type  1   force =     0.00004188   -0.00000854    0.00055186
     atom   21 type  1   force =     0.00023200    0.00010892   -0.00024946
     atom   22 type  1   force =     0.00023716    0.00011384    0.00023970
     atom   23 type  1   force =     0.00004250    0.00001027    0.00008354
     atom   24 type  1   force =     0.00004166    0.00001028   -0.00010017
     atom   25 type  1   force =     0.00034187    0.00045521   -0.00034115
     atom   26 type  1   force =     0.00024669   -0.00030929   -0.00015608
     atom   27 type  1   force =     0.00011980   -0.00045421   -0.00011902
     atom   28 type  1   force =     0.00022748    0.00030965    0.00007223
     atom   29 type  1   force =     0.00015682   -0.00030918   -0.00024732
     atom   30 type  1   force =     0.00005109    0.00015289   -0.00005212
     atom   31 type  1   force =    -0.00007151    0.00030997   -0.00022868
     atom   32 type  1   force =     0.00003240   -0.00015275   -0.00003320
     atom   33 type  1   force =    -0.00007117    0.00007077    0.00009259
     atom   34 type  1   force =     0.00022710    0.00005607   -0.00022781
     atom   35 type  1   force =    -0.00267766    0.00272842   -0.00390443
     atom   36 type  1   force =    -0.00010040    0.00009943    0.00009973
     atom   37 type  1   force =     0.00000031    0.00005018    0.00000029
     atom   38 type  1   force =    -0.00009284    0.00007068    0.00007210
     atom   39 type  1   force =    -0.00005058    0.00007556    0.00005125
     atom   40 type  1   force =     0.00390362    0.00272848    0.00267795
     atom   41 type  1   force =     0.00247008    0.00244340   -0.00384877
     atom   42 type  1   force =     0.00396483   -0.00265368   -0.00264607
     atom   43 type  1   force =     0.00007869    0.00001302    0.00003214
     atom   44 type  1   force =    -0.00003376   -0.00001075   -0.00030254
     atom   45 type  1   force =     0.00006423    0.00001118   -0.00001226
     atom   46 type  1   force =    -0.00003499   -0.00002137   -0.00006689
     atom   47 type  1   force =     0.00000814   -0.00000446   -0.00005937
     atom   48 type  1   force =     0.00028563    0.00000352   -0.00000670
     atom   49 type  1   force =    -0.00011058   -0.00007387    0.00011087
     atom   50 type  1   force =     0.00000013   -0.00005342   -0.00022370
     atom   51 type  1   force =     0.00133058   -0.00497127   -0.00132969
     atom   52 type  1   force =    -0.00005041   -0.00009031    0.00009722
     atom   53 type  1   force =     0.00022426   -0.00005375   -0.00000074
     atom   54 type  1   force =    -0.00005324   -0.00006124    0.00005229
     atom   55 type  1   force =    -0.00009667   -0.00009019    0.00004986
     atom   56 type  1   force =     0.00000114   -0.00005938   -0.00000153
     atom   57 type  1   force =     0.00264681   -0.00265367   -0.00396530
     atom   58 type  1   force =     0.00006636   -0.00002135    0.00003442
     atom   59 type  1   force =     0.00030308   -0.00001071    0.00003314
     atom   60 type  1   force =     0.00000598    0.00000320   -0.00028614
     atom   61 type  1   force =     0.00384933    0.00244355   -0.00246960
     atom   62 type  1   force =     0.00001166    0.00001095   -0.00006375
     atom   63 type  1   force =    -0.00003159    0.00001288   -0.00007786
     atom   64 type  1   force =     0.00005859   -0.00000433   -0.00000728

     Total force =     0.026930     Total SCF correction =     0.000061


     Computing stress (Cartesian axis) and pressure

          total   stress  (Ry/bohr**3)                   (kbar)     P=    0.12
   0.00000075  -0.00000238   0.00000000          0.11     -0.35      0.00
  -0.00000238   0.00000089   0.00000238         -0.35      0.13      0.35
   0.00000000   0.00000238   0.00000075          0.00      0.35      0.11


     init_run     :     40.19s CPU     40.98s WALL (       1 calls)
     electrons    :    878.41s CPU    898.47s WALL (       1 calls)
     forces       :     11.66s CPU     11.87s WALL (       1 calls)
     stress       :     56.49s CPU     56.77s WALL (       1 calls)

     Called by init_run:
     wfcinit      :     37.11s CPU     37.79s WALL (       1 calls)
     potinit      :      1.06s CPU      1.09s WALL (       1 calls)

     Called by electrons:
     c_bands      :    729.74s CPU    746.52s WALL (      14 calls)
     sum_band     :    131.93s CPU    134.36s WALL (      14 calls)
     v_of_rho     :      5.48s CPU      5.57s WALL (      14 calls)
     newd         :      2.95s CPU      3.75s WALL (      14 calls)
     PAW_pot      :      8.11s CPU      8.13s WALL (      14 calls)
     mix_rho      :      1.23s CPU      1.26s WALL (      14 calls)

     Called by c_bands:
     init_us_2    :      7.76s CPU      7.80s WALL (     124 calls)
     cegterg      :    714.90s CPU    731.63s WALL (      56 calls)

     Called by sum_band:
     sum_band:bec :      0.02s CPU      0.02s WALL (      56 calls)
     addusdens    :      3.54s CPU      4.35s WALL (      14 calls)

     Called by *egterg:
     h_psi        :    635.78s CPU    646.13s WALL (     200 calls)
     s_psi        :     36.66s CPU     36.65s WALL (     200 calls)
     g_psi        :      1.27s CPU      1.29s WALL (     140 calls)
     cdiaghg      :      4.60s CPU      4.57s WALL (     192 calls)

     Called by h_psi:
     h_psi:pot    :    631.74s CPU    642.03s WALL (     200 calls)
     h_psi:calbec :     36.46s CPU     36.45s WALL (     200 calls)
     vloc_psi     :    558.80s CPU    569.08s WALL (     200 calls)
     add_vuspsi   :     36.48s CPU     36.50s WALL (     200 calls)

     General routines
     calbec       :     53.52s CPU     53.52s WALL (     276 calls)
     fft          :      4.59s CPU      4.79s WALL (     209 calls)
     fftw         :    564.36s CPU    575.93s WALL (   48954 calls)

     Parallel routines
     fft_scatt_xy :     95.76s CPU     96.19s WALL (   49163 calls)
     fft_scatt_yz :    103.88s CPU    110.18s WALL (   49163 calls)

     PWSCF        : 16m26.84s CPU    16m48.22s WALL


   This run was terminated on:  23:50:36  24Oct2021            

=------------------------------------------------------------------------------=
   JOB DONE.
=------------------------------------------------------------------------------=
Note: The following floating-point exceptions are signalling: IEEE_UNDERFLOW_FLAG IEEE_DENORMAL
