
     Program PWSCF v.6.2 (svn rev. 13949:13950) starts on 24Oct2021 at 18:37: 3 

     This program is part of the open-source Quantum ESPRESSO suite
     for quantum simulation of materials; please cite
         "P. Giannozzi et al., J. Phys.:Condens. Matter 21 395502 (2009);
         "P. Giannozzi et al., J. Phys.:Condens. Matter 29 465901 (2017);
          URL http://www.quantum-espresso.org", 
     in publications or presentations arising from this work. More details at
     http://www.quantum-espresso.org/quote

     Parallel version (MPI), running on     4 processors

     MPI processes distributed on     1 nodes
     R & G space division:  proc/nbgrp/npool/nimage =       4
     Reading input from headeradd_supercell-00018.in

     Current dimensions of program PWSCF are:
     Max number of different atomic species (ntypx) = 10
     Max number of k-points (npk) =  40000
     Max angular momentum in pseudopotentials (lmaxx) =  3
     Message from routine iosys:
     minimal I/O required, wf_collect reset to FALSE
               file Si.pbe-n-kjpaw_psl.0.1.UPF: wavefunction(s)  3S renormalized

     Subspace diagonalization in iterative solution of the eigenvalue problem:
     a serial algorithm will be used


     Parallelization info
     --------------------
     sticks:   dense  smooth     PW     G-vecs:    dense   smooth      PW
     Min        2372    2372    612               174341   174341   22844
     Max        2374    2374    613               174344   174344   22847
     Sum        9493    9493   2449               697371   697371   91383



     bravais-lattice index     =            0
     lattice parameter (alat)  =      20.6591  a.u.
     unit-cell volume          =    8817.2783 (a.u.)^3
     number of atoms/cell      =           64
     number of atomic types    =            1
     number of electrons       =       256.00
     number of Kohn-Sham states=          128
     kinetic-energy cutoff     =      70.0000  Ry
     charge density cutoff     =     280.0000  Ry
     convergence threshold     =      1.0E-09
     mixing beta               =       0.7000
     number of iterations used =            8  plain     mixing
     Exchange-correlation      =  SLA  PW   PBX  PBC ( 1  4  3  4 0 0)

     celldm(1)=  20.659106  celldm(2)=   0.000000  celldm(3)=   0.000000
     celldm(4)=   0.000000  celldm(5)=   0.000000  celldm(6)=   0.000000

     crystal axes: (cart. coord. in units of alat)
               a(1) = (   1.000000   0.000000   0.000000 )  
               a(2) = (   0.000000   1.000000   0.000000 )  
               a(3) = (   0.000000   0.000000   1.000000 )  

     reciprocal axes: (cart. coord. in units 2 pi/alat)
               b(1) = (  1.000000  0.000000  0.000000 )  
               b(2) = (  0.000000  1.000000  0.000000 )  
               b(3) = (  0.000000  0.000000  1.000000 )  


     PseudoPot. # 1 for Si read from file:
     /home/uezono/pseudo/Si.pbe-n-kjpaw_psl.0.1.UPF
     MD5 check sum: 0810ef13ebffcf5dbabd57b297315270
     Pseudo is Projector augmented-wave + core cor, Zval =  4.0
     Generated using "atomic" code by A. Dal Corso  v.5.0.2 svn rev. 9415
     Shape of augmentation charge: PSQ
     Using radial grid of 1141 points,  4 beta functions with: 
                l(1) =   0
                l(2) =   0
                l(3) =   1
                l(4) =   1
     Q(r) pseudized with 0 coefficients 


     atomic species   valence    mass     pseudopotential
        Si             4.00    28.08550     Si( 1.00)

      2 Sym. Ops. (no inversion) found



   Cartesian axes

     site n.     atom                  positions (alat units)
         1           Si  tau(   1) = (   0.4404043   0.4375000   0.4375000  )
         2           Si  tau(   2) = (   0.9375000   0.4375000   0.4375000  )
         3           Si  tau(   3) = (   0.4375000   0.9375000   0.4375000  )
         4           Si  tau(   4) = (   0.9375000   0.9375000   0.4375000  )
         5           Si  tau(   5) = (   0.4375000   0.4375000   0.9375000  )
         6           Si  tau(   6) = (   0.9375000   0.4375000   0.9375000  )
         7           Si  tau(   7) = (   0.4375000   0.9375000   0.9375000  )
         8           Si  tau(   8) = (   0.9375000   0.9375000   0.9375000  )
         9           Si  tau(   9) = (   0.4404043   0.1875000   0.1875000  )
        10           Si  tau(  10) = (   0.9375000   0.1875000   0.1875000  )
        11           Si  tau(  11) = (   0.4375000   0.6875000   0.1875000  )
        12           Si  tau(  12) = (   0.9375000   0.6875000   0.1875000  )
        13           Si  tau(  13) = (   0.4375000   0.1875000   0.6875000  )
        14           Si  tau(  14) = (   0.9375000   0.1875000   0.6875000  )
        15           Si  tau(  15) = (   0.4375000   0.6875000   0.6875000  )
        16           Si  tau(  16) = (   0.9375000   0.6875000   0.6875000  )
        17           Si  tau(  17) = (   0.1875000   0.4375000   0.1875000  )
        18           Si  tau(  18) = (   0.6875000   0.4375000   0.1875000  )
        19           Si  tau(  19) = (   0.1875000   0.9375000   0.1875000  )
        20           Si  tau(  20) = (   0.6875000   0.9375000   0.1875000  )
        21           Si  tau(  21) = (   0.1875000   0.4375000   0.6875000  )
        22           Si  tau(  22) = (   0.6875000   0.4375000   0.6875000  )
        23           Si  tau(  23) = (   0.1875000   0.9375000   0.6875000  )
        24           Si  tau(  24) = (   0.6875000   0.9375000   0.6875000  )
        25           Si  tau(  25) = (   0.1875000   0.1875000   0.4375000  )
        26           Si  tau(  26) = (   0.6875000   0.1875000   0.4375000  )
        27           Si  tau(  27) = (   0.1875000   0.6875000   0.4375000  )
        28           Si  tau(  28) = (   0.6875000   0.6875000   0.4375000  )
        29           Si  tau(  29) = (   0.1875000   0.1875000   0.9375000  )
        30           Si  tau(  30) = (   0.6875000   0.1875000   0.9375000  )
        31           Si  tau(  31) = (   0.1875000   0.6875000   0.9375000  )
        32           Si  tau(  32) = (   0.6875000   0.6875000   0.9375000  )
        33           Si  tau(  33) = (   0.0625000   0.0625000   0.0625000  )
        34           Si  tau(  34) = (   0.5625000   0.0625000   0.0625000  )
        35           Si  tau(  35) = (   0.0625000   0.5625000   0.0625000  )
        36           Si  tau(  36) = (   0.5625000   0.5625000   0.0625000  )
        37           Si  tau(  37) = (   0.0625000   0.0625000   0.5625000  )
        38           Si  tau(  38) = (   0.5625000   0.0625000   0.5625000  )
        39           Si  tau(  39) = (   0.0625000   0.5625000   0.5625000  )
        40           Si  tau(  40) = (   0.5625000   0.5625000   0.5625000  )
        41           Si  tau(  41) = (   0.0625000   0.3125000   0.3125000  )
        42           Si  tau(  42) = (   0.5625000   0.3125000   0.3125000  )
        43           Si  tau(  43) = (   0.0625000   0.8125000   0.3125000  )
        44           Si  tau(  44) = (   0.5625000   0.8125000   0.3125000  )
        45           Si  tau(  45) = (   0.0625000   0.3125000   0.8125000  )
        46           Si  tau(  46) = (   0.5625000   0.3125000   0.8125000  )
        47           Si  tau(  47) = (   0.0625000   0.8125000   0.8125000  )
        48           Si  tau(  48) = (   0.5625000   0.8125000   0.8125000  )
        49           Si  tau(  49) = (   0.3125000   0.0625000   0.3125000  )
        50           Si  tau(  50) = (   0.8125000   0.0625000   0.3125000  )
        51           Si  tau(  51) = (   0.3125000   0.5625000   0.3125000  )
        52           Si  tau(  52) = (   0.8125000   0.5625000   0.3125000  )
        53           Si  tau(  53) = (   0.3125000   0.0625000   0.8125000  )
        54           Si  tau(  54) = (   0.8125000   0.0625000   0.8125000  )
        55           Si  tau(  55) = (   0.3125000   0.5625000   0.8125000  )
        56           Si  tau(  56) = (   0.8125000   0.5625000   0.8125000  )
        57           Si  tau(  57) = (   0.3125000   0.3125000   0.0625000  )
        58           Si  tau(  58) = (   0.8125000   0.3125000   0.0625000  )
        59           Si  tau(  59) = (   0.3125000   0.8125000   0.0625000  )
        60           Si  tau(  60) = (   0.8125000   0.8125000   0.0625000  )
        61           Si  tau(  61) = (   0.3125000   0.3125000   0.5625000  )
        62           Si  tau(  62) = (   0.8125000   0.3125000   0.5625000  )
        63           Si  tau(  63) = (   0.3125000   0.8125000   0.5625000  )
        64           Si  tau(  64) = (   0.8125000   0.8125000   0.5625000  )

     number of k points=     3
                       cart. coord. in units 2pi/alat
        k(    1) = (   0.2500000   0.2500000   0.2500000), wk =   0.5000000
        k(    2) = (  -0.2500000   0.2500000  -0.2500000), wk =   1.0000000
        k(    3) = (   0.2500000  -0.2500000  -0.2500000), wk =   0.5000000

     Dense  grid:   697371 G-vectors     FFT dimensions: ( 120, 120, 120)

     Estimated max dynamical RAM per process >       1.04 GB

     Estimated total dynamical RAM >       4.16 GB

     Initial potential from superposition of free atoms

     starting charge  255.96421, renormalised to  256.00000
     Starting wfc are  256 randomized atomic wfcs
     Checking if some PAW data can be deallocated... 

     total cpu time spent up to now is       31.7 secs

     Self-consistent Calculation

     iteration #  1     ecut=    70.00 Ry     beta= 0.70
     Davidson diagonalization with overlap
     ethr =  1.00E-02,  avg # of iterations =  2.0

     Threshold (ethr) on eigenvalues was too large:
     Diagonalizing with lowered threshold

     Davidson diagonalization with overlap
     ethr =  6.98E-04,  avg # of iterations =  1.0

     total cpu time spent up to now is      118.3 secs

     total energy              =   -2990.46244816 Ry
     Harris-Foulkes estimate   =   -2990.88002087 Ry
     estimated scf accuracy    <       1.76623374 Ry

     iteration #  2     ecut=    70.00 Ry     beta= 0.70
     Davidson diagonalization with overlap
     ethr =  6.90E-04,  avg # of iterations =  1.0

     total cpu time spent up to now is      155.4 secs

     total energy              =   -2990.52624171 Ry
     Harris-Foulkes estimate   =   -2990.53052633 Ry
     estimated scf accuracy    <       0.07829825 Ry

     iteration #  3     ecut=    70.00 Ry     beta= 0.70
     Davidson diagonalization with overlap
     ethr =  3.06E-05,  avg # of iterations =  2.3

     total cpu time spent up to now is      198.7 secs

     total energy              =   -2990.53496521 Ry
     Harris-Foulkes estimate   =   -2990.53560843 Ry
     estimated scf accuracy    <       0.00175944 Ry

     iteration #  4     ecut=    70.00 Ry     beta= 0.70
     Davidson diagonalization with overlap
     ethr =  6.87E-07,  avg # of iterations =  3.0

     total cpu time spent up to now is      259.7 secs

     total energy              =   -2990.53561799 Ry
     Harris-Foulkes estimate   =   -2990.53612156 Ry
     estimated scf accuracy    <       0.00135538 Ry

     iteration #  5     ecut=    70.00 Ry     beta= 0.70
     Davidson diagonalization with overlap
     ethr =  5.29E-07,  avg # of iterations =  3.0

     total cpu time spent up to now is      306.2 secs

     total energy              =   -2990.53585542 Ry
     Harris-Foulkes estimate   =   -2990.53592052 Ry
     estimated scf accuracy    <       0.00018568 Ry

     iteration #  6     ecut=    70.00 Ry     beta= 0.70
     Davidson diagonalization with overlap
     ethr =  7.25E-08,  avg # of iterations =  3.0

     total cpu time spent up to now is      355.2 secs

     total energy              =   -2990.53588386 Ry
     Harris-Foulkes estimate   =   -2990.53590627 Ry
     estimated scf accuracy    <       0.00006516 Ry

     iteration #  7     ecut=    70.00 Ry     beta= 0.70
     Davidson diagonalization with overlap
     ethr =  2.55E-08,  avg # of iterations =  2.0

     total cpu time spent up to now is      400.6 secs

     total energy              =   -2990.53589465 Ry
     Harris-Foulkes estimate   =   -2990.53589517 Ry
     estimated scf accuracy    <       0.00000102 Ry

     iteration #  8     ecut=    70.00 Ry     beta= 0.70
     Davidson diagonalization with overlap
     ethr =  3.99E-10,  avg # of iterations =  3.3

     total cpu time spent up to now is      467.6 secs

     total energy              =   -2990.53589554 Ry
     Harris-Foulkes estimate   =   -2990.53589579 Ry
     estimated scf accuracy    <       0.00000038 Ry

     iteration #  9     ecut=    70.00 Ry     beta= 0.70
     Davidson diagonalization with overlap
     ethr =  1.50E-10,  avg # of iterations =  3.0

     total cpu time spent up to now is      513.9 secs

     total energy              =   -2990.53589548 Ry
     Harris-Foulkes estimate   =   -2990.53589561 Ry
     estimated scf accuracy    <       0.00000017 Ry

     iteration # 10     ecut=    70.00 Ry     beta= 0.70
     Davidson diagonalization with overlap
     ethr =  6.45E-11,  avg # of iterations =  3.0

     total cpu time spent up to now is      559.7 secs

     total energy              =   -2990.53589545 Ry
     Harris-Foulkes estimate   =   -2990.53589551 Ry
     estimated scf accuracy    <       0.00000003 Ry

     iteration # 11     ecut=    70.00 Ry     beta= 0.70
     Davidson diagonalization with overlap
     ethr =  9.87E-12,  avg # of iterations =  3.0

     total cpu time spent up to now is      608.8 secs

     total energy              =   -2990.53589545 Ry
     Harris-Foulkes estimate   =   -2990.53589545 Ry
     estimated scf accuracy    <          3.0E-09 Ry

     iteration # 12     ecut=    70.00 Ry     beta= 0.70
     Davidson diagonalization with overlap
     ethr =  1.17E-12,  avg # of iterations =  3.0

     total cpu time spent up to now is      665.4 secs

     total energy              =   -2990.53589545 Ry
     Harris-Foulkes estimate   =   -2990.53589545 Ry
     estimated scf accuracy    <          1.3E-09 Ry

     iteration # 13     ecut=    70.00 Ry     beta= 0.70
     Davidson diagonalization with overlap
     ethr =  5.01E-13,  avg # of iterations =  3.0

     total cpu time spent up to now is      715.0 secs

     End of self-consistent calculation

          k = 0.2500 0.2500 0.2500 ( 87251 PWs)   bands (ev):

    -5.6250  -5.1009  -5.0946  -5.0940  -4.6010  -4.5949  -4.5941  -4.1620
    -4.0673  -4.0616  -4.0604  -3.6570  -3.6487  -3.6464  -3.6451  -3.6451
    -3.6431  -3.4615  -3.4529  -3.4518  -2.9608  -2.9565  -2.9527  -2.5942
    -2.5883  -2.5864  -2.4320  -2.4216  -2.4202  -2.4186  -2.4178  -2.4160
    -0.8913  -0.8788  -0.8776  -0.8754  -0.8726  -0.8713  -0.7812  -0.7807
    -0.7764  -0.6666  -0.6606  -0.6546  -0.5886  -0.5784  -0.5740   0.1226
     0.2017   0.2103   0.2108   0.2134   0.2175   0.2197   1.0748   1.0852
     1.0888   1.4128   1.4202   1.4220   2.0229   2.0277   2.0297   2.0301
     2.0309   2.0343   2.0863   2.0904   2.0915   2.6363   2.6381   2.6400
     2.7401   2.7408   2.7438   2.7452   2.7474   2.7494   2.7937   2.7994
     2.8029   3.0982   3.1069   3.1079   3.1088   3.1096   3.1128   3.3707
     3.3734   3.3749   3.3816   3.3899   3.3906   3.7270   3.7343   3.7362
     3.7484   3.7546   3.7571   3.8370   3.8405   3.8446   4.0997   4.1099
     4.1124   4.1145   4.1154   4.1170   4.1513   4.1546   4.1592   4.4089
     4.4711   4.4732   4.4759   4.7121   4.7158   4.7212   4.7677   4.7765
     4.7787   4.9325   4.9423   5.2415   5.2451   5.2526   5.7207   5.7320

          k =-0.2500 0.2500-0.2500 ( 87251 PWs)   bands (ev):

    -5.6251  -5.0995  -5.0961  -5.0931  -4.6001  -4.5964  -4.5938  -4.1643
    -4.0668  -4.0639  -4.0602  -3.6528  -3.6522  -3.6488  -3.6467  -3.6421
    -3.6370  -3.4578  -3.4568  -3.4475  -2.9646  -2.9599  -2.9567  -2.5922
    -2.5896  -2.5850  -2.4265  -2.4259  -2.4227  -2.4204  -2.4166  -2.4105
    -0.8854  -0.8840  -0.8800  -0.8781  -0.8734  -0.8721  -0.7841  -0.7807
    -0.7794  -0.6691  -0.6641  -0.6580  -0.5766  -0.5726  -0.5662   0.1300
     0.2016   0.2048   0.2087   0.2104   0.2146   0.2155   1.0848   1.0885
     1.0899   1.4154   1.4157   1.4237   2.0243   2.0251   2.0294   2.0295
     2.0305   2.0348   2.0847   2.0861   2.0908   2.6404   2.6422   2.6435
     2.7342   2.7355   2.7420   2.7442   2.7467   2.7473   2.7921   2.7928
     2.7987   3.1019   3.1052   3.1072   3.1080   3.1116   3.1126   3.3675
     3.3704   3.3734   3.3821   3.3832   3.3899   3.7342   3.7370   3.7380
     3.7554   3.7600   3.7639   3.8346   3.8399   3.8405   4.1123   4.1133
     4.1145   4.1160   4.1176   4.1275   4.1482   4.1541   4.1554   4.4171
     4.4653   4.4686   4.4719   4.7084   4.7140   4.7150   4.7795   4.7843
     4.7874   4.9300   4.9401   5.2355   5.2429   5.2441   5.7162   5.7271

          k = 0.2500-0.2500-0.2500 ( 87251 PWs)   bands (ev):

    -5.6250  -5.1009  -5.0946  -5.0940  -4.6010  -4.5949  -4.5942  -4.1620
    -4.0673  -4.0616  -4.0604  -3.6570  -3.6487  -3.6464  -3.6451  -3.6451
    -3.6432  -3.4615  -3.4529  -3.4518  -2.9608  -2.9565  -2.9527  -2.5942
    -2.5883  -2.5864  -2.4320  -2.4216  -2.4202  -2.4186  -2.4178  -2.4160
    -0.8913  -0.8788  -0.8776  -0.8754  -0.8726  -0.8713  -0.7812  -0.7807
    -0.7764  -0.6666  -0.6606  -0.6546  -0.5886  -0.5784  -0.5740   0.1226
     0.2017   0.2103   0.2108   0.2134   0.2175   0.2197   1.0748   1.0852
     1.0888   1.4128   1.4202   1.4220   2.0229   2.0277   2.0297   2.0301
     2.0309   2.0343   2.0863   2.0904   2.0915   2.6363   2.6381   2.6400
     2.7401   2.7408   2.7438   2.7452   2.7474   2.7494   2.7937   2.7994
     2.8029   3.0982   3.1069   3.1079   3.1088   3.1096   3.1128   3.3707
     3.3734   3.3749   3.3816   3.3899   3.3906   3.7270   3.7343   3.7362
     3.7484   3.7546   3.7571   3.8370   3.8405   3.8446   4.0997   4.1099
     4.1124   4.1145   4.1154   4.1170   4.1513   4.1546   4.1592   4.4089
     4.4711   4.4732   4.4759   4.7121   4.7158   4.7212   4.7677   4.7765
     4.7787   4.9325   4.9423   5.2415   5.2451   5.2526   5.7207   5.7320

     highest occupied level (ev):     5.7320

!    total energy              =   -2990.53589546 Ry
     Harris-Foulkes estimate   =   -2990.53589545 Ry
     estimated scf accuracy    <          2.7E-10 Ry

     total all-electron energy =    -37124.671449 Ry

     The total energy is the sum of the following terms:

     one-electron contribution =     178.60355110 Ry
     hartree contribution      =      35.70201587 Ry
     xc contribution           =    -391.44048905 Ry
     ewald contribution        =    -534.00596555 Ry
     one-center paw contrib.   =   -2279.39500782 Ry

     convergence has been achieved in  13 iterations

     Forces acting on atoms (cartesian axes, Ry/au):

     atom    1 type  1   force =    -0.01639958   -0.00011458   -0.00011458
     atom    2 type  1   force =     0.00002207   -0.00000914   -0.00000914
     atom    3 type  1   force =    -0.00046946   -0.00010884    0.00010894
     atom    4 type  1   force =    -0.00000695   -0.00001011    0.00000952
     atom    5 type  1   force =    -0.00046946    0.00010894   -0.00010884
     atom    6 type  1   force =    -0.00000695    0.00000952   -0.00001011
     atom    7 type  1   force =    -0.00100223    0.00011426    0.00011426
     atom    8 type  1   force =     0.00002241    0.00000936    0.00000936
     atom    9 type  1   force =    -0.01639869    0.00011442    0.00011442
     atom   10 type  1   force =     0.00002043    0.00000920    0.00000920
     atom   11 type  1   force =    -0.00046937    0.00010957   -0.00010961
     atom   12 type  1   force =    -0.00000675    0.00000971   -0.00000921
     atom   13 type  1   force =    -0.00046937   -0.00010961    0.00010957
     atom   14 type  1   force =    -0.00000675   -0.00000921    0.00000971
     atom   15 type  1   force =    -0.00100330   -0.00011395   -0.00011395
     atom   16 type  1   force =     0.00002356   -0.00000939   -0.00000939
     atom   17 type  1   force =     0.00046241   -0.00033687    0.00033787
     atom   18 type  1   force =     0.00047643    0.00011944   -0.00011994
     atom   19 type  1   force =     0.00027369    0.00021698   -0.00018572
     atom   20 type  1   force =     0.00027965   -0.00024227   -0.00003836
     atom   21 type  1   force =     0.00027269    0.00018560   -0.00021785
     atom   22 type  1   force =     0.00028020    0.00003732    0.00024231
     atom   23 type  1   force =     0.00008452   -0.00006752    0.00006750
     atom   24 type  1   force =     0.00008476    0.00008620   -0.00008484
     atom   25 type  1   force =     0.00046241    0.00033787   -0.00033687
     atom   26 type  1   force =     0.00047643   -0.00011994    0.00011944
     atom   27 type  1   force =     0.00027269   -0.00021785    0.00018560
     atom   28 type  1   force =     0.00028020    0.00024231    0.00003732
     atom   29 type  1   force =     0.00027369   -0.00018572    0.00021698
     atom   30 type  1   force =     0.00027965   -0.00003836   -0.00024227
     atom   31 type  1   force =     0.00008452    0.00006750   -0.00006752
     atom   32 type  1   force =     0.00008476   -0.00008484    0.00008620
     atom   33 type  1   force =    -0.00003512   -0.00000709   -0.00000709
     atom   34 type  1   force =     0.00418605   -0.00267602   -0.00267602
     atom   35 type  1   force =     0.00005192    0.00000186   -0.00000148
     atom   36 type  1   force =    -0.00012209    0.00001142   -0.00001118
     atom   37 type  1   force =     0.00005192   -0.00000148    0.00000186
     atom   38 type  1   force =    -0.00012209   -0.00001118    0.00001142
     atom   39 type  1   force =    -0.00003473    0.00000654    0.00000654
     atom   40 type  1   force =     0.00418560    0.00267554    0.00267554
     atom   41 type  1   force =    -0.00002544    0.00000074    0.00000074
     atom   42 type  1   force =     0.00786156   -0.00000041   -0.00000041
     atom   43 type  1   force =     0.00005187   -0.00000049    0.00000012
     atom   44 type  1   force =    -0.00012174    0.00000034   -0.00000064
     atom   45 type  1   force =     0.00005187    0.00000012   -0.00000049
     atom   46 type  1   force =    -0.00012174   -0.00000064    0.00000034
     atom   47 type  1   force =    -0.00004384   -0.00000019   -0.00000019
     atom   48 type  1   force =     0.00051175    0.00000079    0.00000079
     atom   49 type  1   force =     0.00375270    0.00244407   -0.00243143
     atom   50 type  1   force =     0.00001479    0.00001164   -0.00000954
     atom   51 type  1   force =     0.00375166   -0.00244459    0.00243144
     atom   52 type  1   force =     0.00001540   -0.00001124    0.00000913
     atom   53 type  1   force =     0.00019376    0.00002485   -0.00000959
     atom   54 type  1   force =     0.00000514   -0.00000224    0.00000484
     atom   55 type  1   force =     0.00019325   -0.00002435    0.00000976
     atom   56 type  1   force =     0.00000631    0.00000174   -0.00000433
     atom   57 type  1   force =     0.00375270   -0.00243143    0.00244407
     atom   58 type  1   force =     0.00001479   -0.00000954    0.00001164
     atom   59 type  1   force =     0.00019376   -0.00000959    0.00002485
     atom   60 type  1   force =     0.00000514    0.00000484   -0.00000224
     atom   61 type  1   force =     0.00375166    0.00243144   -0.00244459
     atom   62 type  1   force =     0.00001540    0.00000913   -0.00001124
     atom   63 type  1   force =     0.00019325    0.00000976   -0.00002435
     atom   64 type  1   force =     0.00000631   -0.00000433    0.00000174

     Total force =     0.027811     Total SCF correction =     0.000029


     Computing stress (Cartesian axis) and pressure

          total   stress  (Ry/bohr**3)                   (kbar)     P=    0.12
   0.00000059   0.00000000   0.00000000          0.09      0.00      0.00
   0.00000000   0.00000089   0.00000477          0.00      0.13      0.70
   0.00000000   0.00000477   0.00000089          0.00      0.70      0.13


     init_run     :     30.98s CPU     31.61s WALL (       1 calls)
     electrons    :    668.23s CPU    683.32s WALL (       1 calls)
     forces       :     10.34s CPU     10.56s WALL (       1 calls)
     stress       :     44.48s CPU     44.73s WALL (       1 calls)

     Called by init_run:
     wfcinit      :     27.88s CPU     28.40s WALL (       1 calls)
     potinit      :      1.07s CPU      1.09s WALL (       1 calls)

     Called by electrons:
     c_bands      :    550.46s CPU    562.78s WALL (      14 calls)
     sum_band     :    101.12s CPU    102.96s WALL (      14 calls)
     v_of_rho     :      5.42s CPU      5.56s WALL (      14 calls)
     newd         :      2.88s CPU      3.73s WALL (      14 calls)
     PAW_pot      :      8.12s CPU      8.12s WALL (      14 calls)
     mix_rho      :      1.21s CPU      1.26s WALL (      14 calls)

     Called by c_bands:
     init_us_2    :      5.56s CPU      5.58s WALL (      93 calls)
     cegterg      :    539.37s CPU    551.64s WALL (      42 calls)

     Called by sum_band:
     sum_band:bec :      0.00s CPU      0.01s WALL (      42 calls)
     addusdens    :      3.52s CPU      4.36s WALL (      14 calls)

     Called by *egterg:
     h_psi        :    478.92s CPU    486.37s WALL (     152 calls)
     s_psi        :     27.70s CPU     27.72s WALL (     152 calls)
     g_psi        :      0.98s CPU      0.96s WALL (     107 calls)
     cdiaghg      :      3.62s CPU      3.62s WALL (     146 calls)

     Called by h_psi:
     h_psi:pot    :    475.84s CPU    483.28s WALL (     152 calls)
     h_psi:calbec :     27.54s CPU     27.56s WALL (     152 calls)
     vloc_psi     :    420.70s CPU    428.11s WALL (     152 calls)
     add_vuspsi   :     27.60s CPU     27.61s WALL (     152 calls)

     General routines
     calbec       :     40.48s CPU     40.56s WALL (     209 calls)
     fft          :      4.61s CPU      4.89s WALL (     209 calls)
     fftw         :    424.61s CPU    432.55s WALL (   36810 calls)

     Parallel routines
     fft_scatt_xy :     71.68s CPU     72.12s WALL (   37019 calls)
     fft_scatt_yz :     78.06s CPU     82.31s WALL (   37019 calls)

     PWSCF        : 12m34.14s CPU    12m50.34s WALL


   This run was terminated on:  18:49:54  24Oct2021            

=------------------------------------------------------------------------------=
   JOB DONE.
=------------------------------------------------------------------------------=
Note: The following floating-point exceptions are signalling: IEEE_UNDERFLOW_FLAG IEEE_DENORMAL
