
     Program PWSCF v.6.2 (svn rev. 13949:13950) starts on 24Oct2021 at 19:36:19 

     This program is part of the open-source Quantum ESPRESSO suite
     for quantum simulation of materials; please cite
         "P. Giannozzi et al., J. Phys.:Condens. Matter 21 395502 (2009);
         "P. Giannozzi et al., J. Phys.:Condens. Matter 29 465901 (2017);
          URL http://www.quantum-espresso.org", 
     in publications or presentations arising from this work. More details at
     http://www.quantum-espresso.org/quote

     Parallel version (MPI), running on     4 processors

     MPI processes distributed on     1 nodes
     R & G space division:  proc/nbgrp/npool/nimage =       4
     Reading input from headeradd_supercell-00022.in

     Current dimensions of program PWSCF are:
     Max number of different atomic species (ntypx) = 10
     Max number of k-points (npk) =  40000
     Max angular momentum in pseudopotentials (lmaxx) =  3
     Message from routine iosys:
     minimal I/O required, wf_collect reset to FALSE
               file Si.pbe-n-kjpaw_psl.0.1.UPF: wavefunction(s)  3S renormalized

     Subspace diagonalization in iterative solution of the eigenvalue problem:
     a serial algorithm will be used


     Parallelization info
     --------------------
     sticks:   dense  smooth     PW     G-vecs:    dense   smooth      PW
     Min        2372    2372    612               174341   174341   22844
     Max        2374    2374    613               174344   174344   22847
     Sum        9493    9493   2449               697371   697371   91383



     bravais-lattice index     =            0
     lattice parameter (alat)  =      20.6591  a.u.
     unit-cell volume          =    8817.2783 (a.u.)^3
     number of atoms/cell      =           64
     number of atomic types    =            1
     number of electrons       =       256.00
     number of Kohn-Sham states=          128
     kinetic-energy cutoff     =      70.0000  Ry
     charge density cutoff     =     280.0000  Ry
     convergence threshold     =      1.0E-09
     mixing beta               =       0.7000
     number of iterations used =            8  plain     mixing
     Exchange-correlation      =  SLA  PW   PBX  PBC ( 1  4  3  4 0 0)

     celldm(1)=  20.659106  celldm(2)=   0.000000  celldm(3)=   0.000000
     celldm(4)=   0.000000  celldm(5)=   0.000000  celldm(6)=   0.000000

     crystal axes: (cart. coord. in units of alat)
               a(1) = (   1.000000   0.000000   0.000000 )  
               a(2) = (   0.000000   1.000000   0.000000 )  
               a(3) = (   0.000000   0.000000   1.000000 )  

     reciprocal axes: (cart. coord. in units 2 pi/alat)
               b(1) = (  1.000000  0.000000  0.000000 )  
               b(2) = (  0.000000  1.000000  0.000000 )  
               b(3) = (  0.000000  0.000000  1.000000 )  


     PseudoPot. # 1 for Si read from file:
     /home/uezono/pseudo/Si.pbe-n-kjpaw_psl.0.1.UPF
     MD5 check sum: 0810ef13ebffcf5dbabd57b297315270
     Pseudo is Projector augmented-wave + core cor, Zval =  4.0
     Generated using "atomic" code by A. Dal Corso  v.5.0.2 svn rev. 9415
     Shape of augmentation charge: PSQ
     Using radial grid of 1141 points,  4 beta functions with: 
                l(1) =   0
                l(2) =   0
                l(3) =   1
                l(4) =   1
     Q(r) pseudized with 0 coefficients 


     atomic species   valence    mass     pseudopotential
        Si             4.00    28.08550     Si( 1.00)

      2 Sym. Ops. (no inversion) found



   Cartesian axes

     site n.     atom                  positions (alat units)
         1           Si  tau(   1) = (   0.4404043   0.4375000   0.4375000  )
         2           Si  tau(   2) = (   0.9375000   0.4375000   0.4375000  )
         3           Si  tau(   3) = (   0.4375000   0.9375000   0.4375000  )
         4           Si  tau(   4) = (   0.9375000   0.9375000   0.4375000  )
         5           Si  tau(   5) = (   0.4375000   0.4375000   0.9375000  )
         6           Si  tau(   6) = (   0.9375000   0.4375000   0.9375000  )
         7           Si  tau(   7) = (   0.4375000   0.9375000   0.9375000  )
         8           Si  tau(   8) = (   0.9375000   0.9375000   0.9375000  )
         9           Si  tau(   9) = (   0.4375000   0.1875000   0.1875000  )
        10           Si  tau(  10) = (   0.9404043   0.1875000   0.1875000  )
        11           Si  tau(  11) = (   0.4375000   0.6875000   0.1875000  )
        12           Si  tau(  12) = (   0.9375000   0.6875000   0.1875000  )
        13           Si  tau(  13) = (   0.4375000   0.1875000   0.6875000  )
        14           Si  tau(  14) = (   0.9375000   0.1875000   0.6875000  )
        15           Si  tau(  15) = (   0.4375000   0.6875000   0.6875000  )
        16           Si  tau(  16) = (   0.9375000   0.6875000   0.6875000  )
        17           Si  tau(  17) = (   0.1875000   0.4375000   0.1875000  )
        18           Si  tau(  18) = (   0.6875000   0.4375000   0.1875000  )
        19           Si  tau(  19) = (   0.1875000   0.9375000   0.1875000  )
        20           Si  tau(  20) = (   0.6875000   0.9375000   0.1875000  )
        21           Si  tau(  21) = (   0.1875000   0.4375000   0.6875000  )
        22           Si  tau(  22) = (   0.6875000   0.4375000   0.6875000  )
        23           Si  tau(  23) = (   0.1875000   0.9375000   0.6875000  )
        24           Si  tau(  24) = (   0.6875000   0.9375000   0.6875000  )
        25           Si  tau(  25) = (   0.1875000   0.1875000   0.4375000  )
        26           Si  tau(  26) = (   0.6875000   0.1875000   0.4375000  )
        27           Si  tau(  27) = (   0.1875000   0.6875000   0.4375000  )
        28           Si  tau(  28) = (   0.6875000   0.6875000   0.4375000  )
        29           Si  tau(  29) = (   0.1875000   0.1875000   0.9375000  )
        30           Si  tau(  30) = (   0.6875000   0.1875000   0.9375000  )
        31           Si  tau(  31) = (   0.1875000   0.6875000   0.9375000  )
        32           Si  tau(  32) = (   0.6875000   0.6875000   0.9375000  )
        33           Si  tau(  33) = (   0.0625000   0.0625000   0.0625000  )
        34           Si  tau(  34) = (   0.5625000   0.0625000   0.0625000  )
        35           Si  tau(  35) = (   0.0625000   0.5625000   0.0625000  )
        36           Si  tau(  36) = (   0.5625000   0.5625000   0.0625000  )
        37           Si  tau(  37) = (   0.0625000   0.0625000   0.5625000  )
        38           Si  tau(  38) = (   0.5625000   0.0625000   0.5625000  )
        39           Si  tau(  39) = (   0.0625000   0.5625000   0.5625000  )
        40           Si  tau(  40) = (   0.5625000   0.5625000   0.5625000  )
        41           Si  tau(  41) = (   0.0625000   0.3125000   0.3125000  )
        42           Si  tau(  42) = (   0.5625000   0.3125000   0.3125000  )
        43           Si  tau(  43) = (   0.0625000   0.8125000   0.3125000  )
        44           Si  tau(  44) = (   0.5625000   0.8125000   0.3125000  )
        45           Si  tau(  45) = (   0.0625000   0.3125000   0.8125000  )
        46           Si  tau(  46) = (   0.5625000   0.3125000   0.8125000  )
        47           Si  tau(  47) = (   0.0625000   0.8125000   0.8125000  )
        48           Si  tau(  48) = (   0.5625000   0.8125000   0.8125000  )
        49           Si  tau(  49) = (   0.3125000   0.0625000   0.3125000  )
        50           Si  tau(  50) = (   0.8125000   0.0625000   0.3125000  )
        51           Si  tau(  51) = (   0.3125000   0.5625000   0.3125000  )
        52           Si  tau(  52) = (   0.8125000   0.5625000   0.3125000  )
        53           Si  tau(  53) = (   0.3125000   0.0625000   0.8125000  )
        54           Si  tau(  54) = (   0.8125000   0.0625000   0.8125000  )
        55           Si  tau(  55) = (   0.3125000   0.5625000   0.8125000  )
        56           Si  tau(  56) = (   0.8125000   0.5625000   0.8125000  )
        57           Si  tau(  57) = (   0.3125000   0.3125000   0.0625000  )
        58           Si  tau(  58) = (   0.8125000   0.3125000   0.0625000  )
        59           Si  tau(  59) = (   0.3125000   0.8125000   0.0625000  )
        60           Si  tau(  60) = (   0.8125000   0.8125000   0.0625000  )
        61           Si  tau(  61) = (   0.3125000   0.3125000   0.5625000  )
        62           Si  tau(  62) = (   0.8125000   0.3125000   0.5625000  )
        63           Si  tau(  63) = (   0.3125000   0.8125000   0.5625000  )
        64           Si  tau(  64) = (   0.8125000   0.8125000   0.5625000  )

     number of k points=     3
                       cart. coord. in units 2pi/alat
        k(    1) = (   0.2500000   0.2500000   0.2500000), wk =   0.5000000
        k(    2) = (  -0.2500000   0.2500000  -0.2500000), wk =   1.0000000
        k(    3) = (   0.2500000  -0.2500000  -0.2500000), wk =   0.5000000

     Dense  grid:   697371 G-vectors     FFT dimensions: ( 120, 120, 120)

     Estimated max dynamical RAM per process >       1.04 GB

     Estimated total dynamical RAM >       4.16 GB

     Initial potential from superposition of free atoms

     starting charge  255.96421, renormalised to  256.00000
     Starting wfc are  256 randomized atomic wfcs
     Checking if some PAW data can be deallocated... 

     total cpu time spent up to now is       31.7 secs

     Self-consistent Calculation

     iteration #  1     ecut=    70.00 Ry     beta= 0.70
     Davidson diagonalization with overlap
     ethr =  1.00E-02,  avg # of iterations =  2.0

     Threshold (ethr) on eigenvalues was too large:
     Diagonalizing with lowered threshold

     Davidson diagonalization with overlap
     ethr =  6.98E-04,  avg # of iterations =  1.0

     total cpu time spent up to now is      118.3 secs

     total energy              =   -2990.46248781 Ry
     Harris-Foulkes estimate   =   -2990.88003231 Ry
     estimated scf accuracy    <       1.76611179 Ry

     iteration #  2     ecut=    70.00 Ry     beta= 0.70
     Davidson diagonalization with overlap
     ethr =  6.90E-04,  avg # of iterations =  1.0

     total cpu time spent up to now is      155.4 secs

     total energy              =   -2990.52627254 Ry
     Harris-Foulkes estimate   =   -2990.53055971 Ry
     estimated scf accuracy    <       0.07831553 Ry

     iteration #  3     ecut=    70.00 Ry     beta= 0.70
     Davidson diagonalization with overlap
     ethr =  3.06E-05,  avg # of iterations =  2.3

     total cpu time spent up to now is      198.8 secs

     total energy              =   -2990.53499749 Ry
     Harris-Foulkes estimate   =   -2990.53563474 Ry
     estimated scf accuracy    <       0.00175267 Ry

     iteration #  4     ecut=    70.00 Ry     beta= 0.70
     Davidson diagonalization with overlap
     ethr =  6.85E-07,  avg # of iterations =  3.0

     total cpu time spent up to now is      259.8 secs

     total energy              =   -2990.53566032 Ry
     Harris-Foulkes estimate   =   -2990.53613994 Ry
     estimated scf accuracy    <       0.00128641 Ry

     iteration #  5     ecut=    70.00 Ry     beta= 0.70
     Davidson diagonalization with overlap
     ethr =  5.03E-07,  avg # of iterations =  3.0

     total cpu time spent up to now is      306.4 secs

     total energy              =   -2990.53588735 Ry
     Harris-Foulkes estimate   =   -2990.53595390 Ry
     estimated scf accuracy    <       0.00019296 Ry

     iteration #  6     ecut=    70.00 Ry     beta= 0.70
     Davidson diagonalization with overlap
     ethr =  7.54E-08,  avg # of iterations =  3.0

     total cpu time spent up to now is      354.3 secs

     total energy              =   -2990.53591647 Ry
     Harris-Foulkes estimate   =   -2990.53593645 Ry
     estimated scf accuracy    <       0.00005629 Ry

     iteration #  7     ecut=    70.00 Ry     beta= 0.70
     Davidson diagonalization with overlap
     ethr =  2.20E-08,  avg # of iterations =  2.0

     total cpu time spent up to now is      400.0 secs

     total energy              =   -2990.53592637 Ry
     Harris-Foulkes estimate   =   -2990.53592705 Ry
     estimated scf accuracy    <       0.00000143 Ry

     iteration #  8     ecut=    70.00 Ry     beta= 0.70
     Davidson diagonalization with overlap
     ethr =  5.58E-10,  avg # of iterations =  3.0

     total cpu time spent up to now is      464.8 secs

     total energy              =   -2990.53592729 Ry
     Harris-Foulkes estimate   =   -2990.53592756 Ry
     estimated scf accuracy    <       0.00000046 Ry

     iteration #  9     ecut=    70.00 Ry     beta= 0.70
     Davidson diagonalization with overlap
     ethr =  1.81E-10,  avg # of iterations =  3.0

     total cpu time spent up to now is      511.1 secs

     total energy              =   -2990.53592724 Ry
     Harris-Foulkes estimate   =   -2990.53592739 Ry
     estimated scf accuracy    <       0.00000021 Ry

     iteration # 10     ecut=    70.00 Ry     beta= 0.70
     Davidson diagonalization with overlap
     ethr =  8.05E-11,  avg # of iterations =  2.0

     total cpu time spent up to now is      556.1 secs

     total energy              =   -2990.53592720 Ry
     Harris-Foulkes estimate   =   -2990.53592727 Ry
     estimated scf accuracy    <       0.00000002 Ry

     iteration # 11     ecut=    70.00 Ry     beta= 0.70
     Davidson diagonalization with overlap
     ethr =  9.02E-12,  avg # of iterations =  3.0

     total cpu time spent up to now is      607.4 secs

     total energy              =   -2990.53592721 Ry
     Harris-Foulkes estimate   =   -2990.53592721 Ry
     estimated scf accuracy    <          3.1E-09 Ry

     iteration # 12     ecut=    70.00 Ry     beta= 0.70
     Davidson diagonalization with overlap
     ethr =  1.22E-12,  avg # of iterations =  3.0

     total cpu time spent up to now is      663.7 secs

     total energy              =   -2990.53592721 Ry
     Harris-Foulkes estimate   =   -2990.53592721 Ry
     estimated scf accuracy    <          1.7E-09 Ry

     iteration # 13     ecut=    70.00 Ry     beta= 0.70
     Davidson diagonalization with overlap
     ethr =  6.67E-13,  avg # of iterations =  3.0

     total cpu time spent up to now is      713.6 secs

     End of self-consistent calculation

          k = 0.2500 0.2500 0.2500 ( 87251 PWs)   bands (ev):

    -5.6250  -5.1008  -5.0946  -5.0940  -4.6011  -4.5949  -4.5942  -4.1620
    -4.0672  -4.0616  -4.0603  -3.6567  -3.6488  -3.6464  -3.6451  -3.6451
    -3.6431  -3.4617  -3.4529  -3.4519  -2.9608  -2.9565  -2.9527  -2.5940
    -2.5885  -2.5863  -2.4323  -2.4215  -2.4202  -2.4186  -2.4178  -2.4161
    -0.8911  -0.8789  -0.8776  -0.8755  -0.8723  -0.8715  -0.7813  -0.7808
    -0.7768  -0.6666  -0.6604  -0.6540  -0.5887  -0.5784  -0.5740   0.1225
     0.2018   0.2103   0.2108   0.2134   0.2175   0.2199   1.0746   1.0852
     1.0888   1.4128   1.4203   1.4220   2.0232   2.0276   2.0297   2.0299
     2.0309   2.0338   2.0858   2.0906   2.0919   2.6365   2.6380   2.6400
     2.7401   2.7411   2.7440   2.7453   2.7463   2.7489   2.7934   2.7997
     2.8041   3.0983   3.1068   3.1079   3.1088   3.1096   3.1128   3.3701
     3.3734   3.3749   3.3821   3.3899   3.3906   3.7270   3.7345   3.7362
     3.7491   3.7539   3.7571   3.8372   3.8405   3.8444   4.0995   4.1099
     4.1124   4.1145   4.1154   4.1170   4.1512   4.1546   4.1593   4.4093
     4.4705   4.4733   4.4758   4.7120   4.7158   4.7212   4.7676   4.7765
     4.7787   4.9325   4.9424   5.2413   5.2451   5.2525   5.7206   5.7320

          k =-0.2500 0.2500-0.2500 ( 87251 PWs)   bands (ev):

    -5.6251  -5.0995  -5.0961  -5.0931  -4.6000  -4.5965  -4.5938  -4.1644
    -4.0669  -4.0639  -4.0603  -3.6528  -3.6521  -3.6488  -3.6467  -3.6423
    -3.6365  -3.4578  -3.4567  -3.4478  -2.9648  -2.9598  -2.9567  -2.5921
    -2.5897  -2.5848  -2.4266  -2.4259  -2.4227  -2.4204  -2.4165  -2.4108
    -0.8854  -0.8840  -0.8800  -0.8781  -0.8735  -0.8723  -0.7842  -0.7803
    -0.7790  -0.6698  -0.6642  -0.6578  -0.5765  -0.5726  -0.5662   0.1299
     0.2016   0.2047   0.2087   0.2104   0.2147   0.2155   1.0848   1.0886
     1.0899   1.4154   1.4158   1.4236   2.0246   2.0255   2.0294   2.0295
     2.0305   2.0345   2.0846   2.0857   2.0912   2.6404   2.6421   2.6435
     2.7353   2.7364   2.7418   2.7443   2.7465   2.7472   2.7913   2.7921
     2.7987   3.1019   3.1052   3.1072   3.1081   3.1116   3.1126   3.3677
     3.3703   3.3729   3.3825   3.3829   3.3902   3.7343   3.7370   3.7383
     3.7554   3.7593   3.7643   3.8347   3.8398   3.8405   4.1123   4.1133
     4.1144   4.1160   4.1176   4.1275   4.1483   4.1541   4.1554   4.4168
     4.4653   4.4686   4.4722   4.7085   4.7140   4.7149   4.7795   4.7844
     4.7875   4.9302   4.9401   5.2350   5.2429   5.2441   5.7160   5.7272

          k = 0.2500-0.2500-0.2500 ( 87251 PWs)   bands (ev):

    -5.6250  -5.1008  -5.0946  -5.0940  -4.6011  -4.5949  -4.5942  -4.1620
    -4.0672  -4.0616  -4.0603  -3.6567  -3.6488  -3.6464  -3.6451  -3.6451
    -3.6431  -3.4617  -3.4529  -3.4519  -2.9608  -2.9565  -2.9527  -2.5940
    -2.5885  -2.5863  -2.4322  -2.4215  -2.4202  -2.4186  -2.4178  -2.4161
    -0.8911  -0.8789  -0.8776  -0.8755  -0.8723  -0.8715  -0.7813  -0.7808
    -0.7768  -0.6666  -0.6604  -0.6540  -0.5887  -0.5784  -0.5740   0.1225
     0.2018   0.2103   0.2108   0.2134   0.2175   0.2199   1.0746   1.0852
     1.0888   1.4128   1.4203   1.4220   2.0232   2.0276   2.0297   2.0299
     2.0309   2.0338   2.0858   2.0906   2.0919   2.6365   2.6380   2.6400
     2.7401   2.7411   2.7440   2.7453   2.7463   2.7489   2.7934   2.7997
     2.8041   3.0983   3.1068   3.1079   3.1088   3.1096   3.1128   3.3701
     3.3734   3.3749   3.3821   3.3899   3.3906   3.7270   3.7345   3.7362
     3.7491   3.7539   3.7571   3.8372   3.8405   3.8444   4.0995   4.1099
     4.1124   4.1145   4.1154   4.1170   4.1512   4.1546   4.1593   4.4093
     4.4705   4.4733   4.4758   4.7120   4.7158   4.7212   4.7676   4.7765
     4.7787   4.9325   4.9424   5.2413   5.2451   5.2525   5.7206   5.7320

     highest occupied level (ev):     5.7320

!    total energy              =   -2990.53592721 Ry
     Harris-Foulkes estimate   =   -2990.53592721 Ry
     estimated scf accuracy    <          8.2E-10 Ry

     total all-electron energy =    -37124.671480 Ry

     The total energy is the sum of the following terms:

     one-electron contribution =     178.60431408 Ry
     hartree contribution      =      35.70164982 Ry
     xc contribution           =    -391.44049843 Ry
     ewald contribution        =    -534.00638340 Ry
     one-center paw contrib.   =   -2279.39500928 Ry

     convergence has been achieved in  13 iterations

     Forces acting on atoms (cartesian axes, Ry/au):

     atom    1 type  1   force =    -0.01586795   -0.00000985   -0.00000985
     atom    2 type  1   force =    -0.00050677   -0.00011428   -0.00011428
     atom    3 type  1   force =     0.00005536   -0.00000924    0.00000952
     atom    4 type  1   force =    -0.00053117   -0.00010929    0.00010949
     atom    5 type  1   force =     0.00005536    0.00000952   -0.00000924
     atom    6 type  1   force =    -0.00053117    0.00010949   -0.00010929
     atom    7 type  1   force =    -0.00047491    0.00000930    0.00000930
     atom    8 type  1   force =    -0.00050544    0.00011378    0.00011378
     atom    9 type  1   force =    -0.00050612    0.00011534    0.00011534
     atom   10 type  1   force =    -0.01586886    0.00000989    0.00000989
     atom   11 type  1   force =    -0.00052976    0.00010872   -0.00010900
     atom   12 type  1   force =     0.00005397    0.00000906   -0.00000940
     atom   13 type  1   force =    -0.00052976   -0.00010900    0.00010872
     atom   14 type  1   force =     0.00005397   -0.00000940    0.00000906
     atom   15 type  1   force =    -0.00050344   -0.00011460   -0.00011460
     atom   16 type  1   force =    -0.00047619   -0.00000951   -0.00000951
     atom   17 type  1   force =     0.00046910    0.00012184    0.00034220
     atom   18 type  1   force =     0.00046855   -0.00034168   -0.00012201
     atom   19 type  1   force =     0.00027980   -0.00024180   -0.00019009
     atom   20 type  1   force =     0.00027359    0.00021785   -0.00003292
     atom   21 type  1   force =     0.00027327    0.00003363   -0.00021860
     atom   22 type  1   force =     0.00027974    0.00019075    0.00024166
     atom   23 type  1   force =     0.00008436    0.00008593    0.00006679
     atom   24 type  1   force =     0.00008486   -0.00006745   -0.00008602
     atom   25 type  1   force =     0.00046910    0.00034220    0.00012184
     atom   26 type  1   force =     0.00046855   -0.00012201   -0.00034168
     atom   27 type  1   force =     0.00027327   -0.00021860    0.00003363
     atom   28 type  1   force =     0.00027974    0.00024166    0.00019075
     atom   29 type  1   force =     0.00027980   -0.00019009   -0.00024180
     atom   30 type  1   force =     0.00027359   -0.00003292    0.00021785
     atom   31 type  1   force =     0.00008436    0.00006679    0.00008593
     atom   32 type  1   force =     0.00008486   -0.00008602   -0.00006745
     atom   33 type  1   force =     0.00390638   -0.00267209   -0.00267209
     atom   34 type  1   force =     0.00024333   -0.00000982   -0.00000982
     atom   35 type  1   force =    -0.00003542   -0.00001268   -0.00002511
     atom   36 type  1   force =    -0.00003446    0.00002475    0.00001279
     atom   37 type  1   force =    -0.00003542   -0.00002511   -0.00001268
     atom   38 type  1   force =    -0.00003446    0.00001279    0.00002475
     atom   39 type  1   force =     0.00024253    0.00000970    0.00000970
     atom   40 type  1   force =     0.00390725    0.00267238    0.00267238
     atom   41 type  1   force =     0.00391609    0.00266618    0.00266618
     atom   42 type  1   force =     0.00391584   -0.00266568   -0.00266568
     atom   43 type  1   force =    -0.00003539    0.00001395    0.00002388
     atom   44 type  1   force =    -0.00003431   -0.00001430   -0.00002321
     atom   45 type  1   force =    -0.00003539    0.00002388    0.00001395
     atom   46 type  1   force =    -0.00003431   -0.00002321   -0.00001430
     atom   47 type  1   force =     0.00023282   -0.00000373   -0.00000373
     atom   48 type  1   force =     0.00023463    0.00000302    0.00000302
     atom   49 type  1   force =    -0.00007156    0.00000173    0.00001432
     atom   50 type  1   force =     0.00383877    0.00245612   -0.00245299
     atom   51 type  1   force =     0.00383984   -0.00245691    0.00245365
     atom   52 type  1   force =    -0.00007244   -0.00000116   -0.00001364
     atom   53 type  1   force =     0.00028067    0.00000167    0.00000061
     atom   54 type  1   force =    -0.00008136    0.00002089   -0.00000685
     atom   55 type  1   force =    -0.00008048   -0.00002126    0.00000633
     atom   56 type  1   force =     0.00027987   -0.00000143   -0.00000107
     atom   57 type  1   force =    -0.00007156    0.00001432    0.00000173
     atom   58 type  1   force =     0.00383877   -0.00245299    0.00245612
     atom   59 type  1   force =     0.00028067    0.00000061    0.00000167
     atom   60 type  1   force =    -0.00008136   -0.00000685    0.00002089
     atom   61 type  1   force =     0.00383984    0.00245365   -0.00245691
     atom   62 type  1   force =    -0.00007244   -0.00001364   -0.00000116
     atom   63 type  1   force =    -0.00008048    0.00000633   -0.00002126
     atom   64 type  1   force =     0.00027987   -0.00000107   -0.00000143

     Total force =     0.027112     Total SCF correction =     0.000058


     Computing stress (Cartesian axis) and pressure

          total   stress  (Ry/bohr**3)                   (kbar)     P=    0.12
   0.00000059   0.00000000   0.00000000          0.09      0.00      0.00
   0.00000000   0.00000089   0.00000476          0.00      0.13      0.70
   0.00000000   0.00000476   0.00000089          0.00      0.70      0.13


     init_run     :     30.98s CPU     31.61s WALL (       1 calls)
     electrons    :    666.26s CPU    681.93s WALL (       1 calls)
     forces       :     10.36s CPU     10.56s WALL (       1 calls)
     stress       :     44.50s CPU     44.78s WALL (       1 calls)

     Called by init_run:
     wfcinit      :     27.87s CPU     28.41s WALL (       1 calls)
     potinit      :      1.06s CPU      1.09s WALL (       1 calls)

     Called by electrons:
     c_bands      :    548.51s CPU    561.38s WALL (      14 calls)
     sum_band     :    101.16s CPU    103.00s WALL (      14 calls)
     v_of_rho     :      5.42s CPU      5.57s WALL (      14 calls)
     newd         :      2.88s CPU      3.73s WALL (      14 calls)
     PAW_pot      :      8.11s CPU      8.11s WALL (      14 calls)
     mix_rho      :      1.22s CPU      1.26s WALL (      14 calls)

     Called by c_bands:
     init_us_2    :      5.51s CPU      5.57s WALL (      93 calls)
     cegterg      :    537.42s CPU    550.24s WALL (      42 calls)

     Called by sum_band:
     sum_band:bec :      0.01s CPU      0.01s WALL (      42 calls)
     addusdens    :      3.58s CPU      4.35s WALL (      14 calls)

     Called by *egterg:
     h_psi        :    477.85s CPU    485.98s WALL (     148 calls)
     s_psi        :     27.60s CPU     27.60s WALL (     148 calls)
     g_psi        :      0.98s CPU      0.98s WALL (     103 calls)
     cdiaghg      :      3.44s CPU      3.44s WALL (     142 calls)

     Called by h_psi:
     h_psi:pot    :    474.83s CPU    482.88s WALL (     148 calls)
     h_psi:calbec :     27.40s CPU     27.39s WALL (     148 calls)
     vloc_psi     :    419.93s CPU    427.99s WALL (     148 calls)
     add_vuspsi   :     27.51s CPU     27.50s WALL (     148 calls)

     General routines
     calbec       :     40.37s CPU     40.39s WALL (     205 calls)
     fft          :      4.56s CPU      4.89s WALL (     209 calls)
     fftw         :    424.03s CPU    432.61s WALL (   36782 calls)

     Parallel routines
     fft_scatt_xy :     72.14s CPU     72.24s WALL (   36991 calls)
     fft_scatt_yz :     78.26s CPU     82.84s WALL (   36991 calls)

     PWSCF        : 12m32.20s CPU    12m49.03s WALL


   This run was terminated on:  19:49: 8  24Oct2021            

=------------------------------------------------------------------------------=
   JOB DONE.
=------------------------------------------------------------------------------=
Note: The following floating-point exceptions are signalling: IEEE_UNDERFLOW_FLAG IEEE_DENORMAL
