
     Program PWSCF v.6.2 (svn rev. 13949:13950) starts on 25Oct2021 at 16:31:40 

     This program is part of the open-source Quantum ESPRESSO suite
     for quantum simulation of materials; please cite
         "P. Giannozzi et al., J. Phys.:Condens. Matter 21 395502 (2009);
         "P. Giannozzi et al., J. Phys.:Condens. Matter 29 465901 (2017);
          URL http://www.quantum-espresso.org", 
     in publications or presentations arising from this work. More details at
     http://www.quantum-espresso.org/quote

     Parallel version (MPI), running on     4 processors

     MPI processes distributed on     1 nodes
     R & G space division:  proc/nbgrp/npool/nimage =       4
     Reading input from headeradd_supercell-00102.in

     Current dimensions of program PWSCF are:
     Max number of different atomic species (ntypx) = 10
     Max number of k-points (npk) =  40000
     Max angular momentum in pseudopotentials (lmaxx) =  3
     Message from routine iosys:
     minimal I/O required, wf_collect reset to FALSE
               file Si.pbe-n-kjpaw_psl.0.1.UPF: wavefunction(s)  3S renormalized

     Subspace diagonalization in iterative solution of the eigenvalue problem:
     a serial algorithm will be used


     Parallelization info
     --------------------
     sticks:   dense  smooth     PW     G-vecs:    dense   smooth      PW
     Min        2372    2372    612               174341   174341   22844
     Max        2374    2374    613               174344   174344   22847
     Sum        9493    9493   2449               697371   697371   91383



     bravais-lattice index     =            0
     lattice parameter (alat)  =      20.6591  a.u.
     unit-cell volume          =    8817.2783 (a.u.)^3
     number of atoms/cell      =           64
     number of atomic types    =            1
     number of electrons       =       256.00
     number of Kohn-Sham states=          128
     kinetic-energy cutoff     =      70.0000  Ry
     charge density cutoff     =     280.0000  Ry
     convergence threshold     =      1.0E-09
     mixing beta               =       0.7000
     number of iterations used =            8  plain     mixing
     Exchange-correlation      =  SLA  PW   PBX  PBC ( 1  4  3  4 0 0)

     celldm(1)=  20.659106  celldm(2)=   0.000000  celldm(3)=   0.000000
     celldm(4)=   0.000000  celldm(5)=   0.000000  celldm(6)=   0.000000

     crystal axes: (cart. coord. in units of alat)
               a(1) = (   1.000000   0.000000   0.000000 )  
               a(2) = (   0.000000   1.000000   0.000000 )  
               a(3) = (   0.000000   0.000000   1.000000 )  

     reciprocal axes: (cart. coord. in units 2 pi/alat)
               b(1) = (  1.000000  0.000000  0.000000 )  
               b(2) = (  0.000000  1.000000  0.000000 )  
               b(3) = (  0.000000  0.000000  1.000000 )  


     PseudoPot. # 1 for Si read from file:
     /home/uezono/pseudo/Si.pbe-n-kjpaw_psl.0.1.UPF
     MD5 check sum: 0810ef13ebffcf5dbabd57b297315270
     Pseudo is Projector augmented-wave + core cor, Zval =  4.0
     Generated using "atomic" code by A. Dal Corso  v.5.0.2 svn rev. 9415
     Shape of augmentation charge: PSQ
     Using radial grid of 1141 points,  4 beta functions with: 
                l(1) =   0
                l(2) =   0
                l(3) =   1
                l(4) =   1
     Q(r) pseudized with 0 coefficients 


     atomic species   valence    mass     pseudopotential
        Si             4.00    28.08550     Si( 1.00)

      2 Sym. Ops. (no inversion) found ( 1 have fractional translation)



   Cartesian axes

     site n.     atom                  positions (alat units)
         1           Si  tau(   1) = (   0.4404043   0.4375000   0.4375000  )
         2           Si  tau(   2) = (   0.9375000   0.4375000   0.4375000  )
         3           Si  tau(   3) = (   0.4375000   0.9375000   0.4375000  )
         4           Si  tau(   4) = (   0.9375000   0.9375000   0.4375000  )
         5           Si  tau(   5) = (   0.4375000   0.4375000   0.9375000  )
         6           Si  tau(   6) = (   0.9375000   0.4375000   0.9375000  )
         7           Si  tau(   7) = (   0.4375000   0.9375000   0.9375000  )
         8           Si  tau(   8) = (   0.9375000   0.9375000   0.9375000  )
         9           Si  tau(   9) = (   0.4375000   0.1875000   0.1875000  )
        10           Si  tau(  10) = (   0.9375000   0.1875000   0.1875000  )
        11           Si  tau(  11) = (   0.4375000   0.6875000   0.1875000  )
        12           Si  tau(  12) = (   0.9375000   0.6875000   0.1875000  )
        13           Si  tau(  13) = (   0.4375000   0.1875000   0.6875000  )
        14           Si  tau(  14) = (   0.9375000   0.1875000   0.6875000  )
        15           Si  tau(  15) = (   0.4375000   0.6875000   0.6875000  )
        16           Si  tau(  16) = (   0.9375000   0.6875000   0.6875000  )
        17           Si  tau(  17) = (   0.1875000   0.4375000   0.1875000  )
        18           Si  tau(  18) = (   0.6875000   0.4375000   0.1875000  )
        19           Si  tau(  19) = (   0.1875000   0.9375000   0.1875000  )
        20           Si  tau(  20) = (   0.6875000   0.9375000   0.1875000  )
        21           Si  tau(  21) = (   0.1875000   0.4375000   0.6875000  )
        22           Si  tau(  22) = (   0.6875000   0.4375000   0.6875000  )
        23           Si  tau(  23) = (   0.1875000   0.9375000   0.6875000  )
        24           Si  tau(  24) = (   0.6875000   0.9375000   0.6875000  )
        25           Si  tau(  25) = (   0.1875000   0.1875000   0.4375000  )
        26           Si  tau(  26) = (   0.6875000   0.1875000   0.4375000  )
        27           Si  tau(  27) = (   0.1875000   0.6875000   0.4375000  )
        28           Si  tau(  28) = (   0.6875000   0.6875000   0.4375000  )
        29           Si  tau(  29) = (   0.1875000   0.1875000   0.9375000  )
        30           Si  tau(  30) = (   0.6875000   0.1875000   0.9375000  )
        31           Si  tau(  31) = (   0.1875000   0.6875000   0.9375000  )
        32           Si  tau(  32) = (   0.6875000   0.6875000   0.9375000  )
        33           Si  tau(  33) = (   0.0625000   0.0625000   0.0625000  )
        34           Si  tau(  34) = (   0.5625000   0.0625000   0.0625000  )
        35           Si  tau(  35) = (   0.0625000   0.5625000   0.0625000  )
        36           Si  tau(  36) = (   0.5625000   0.5625000   0.0625000  )
        37           Si  tau(  37) = (   0.0625000   0.0625000   0.5625000  )
        38           Si  tau(  38) = (   0.5625000   0.0625000   0.5625000  )
        39           Si  tau(  39) = (   0.0625000   0.5625000   0.5625000  )
        40           Si  tau(  40) = (   0.5625000   0.5625000   0.5625000  )
        41           Si  tau(  41) = (   0.0625000   0.3125000   0.3125000  )
        42           Si  tau(  42) = (   0.5625000   0.3125000   0.3125000  )
        43           Si  tau(  43) = (   0.0625000   0.8125000   0.3125000  )
        44           Si  tau(  44) = (   0.5625000   0.8125000   0.3125000  )
        45           Si  tau(  45) = (   0.0625000   0.3125000   0.8125000  )
        46           Si  tau(  46) = (   0.5625000   0.3125000   0.8125000  )
        47           Si  tau(  47) = (   0.0625000   0.8125000   0.8125000  )
        48           Si  tau(  48) = (   0.5625000   0.8125000   0.8125000  )
        49           Si  tau(  49) = (   0.3125000   0.0625000   0.3125000  )
        50           Si  tau(  50) = (   0.8125000   0.0625000   0.3125000  )
        51           Si  tau(  51) = (   0.3125000   0.5625000   0.3125000  )
        52           Si  tau(  52) = (   0.8154043   0.5625000   0.3125000  )
        53           Si  tau(  53) = (   0.3125000   0.0625000   0.8125000  )
        54           Si  tau(  54) = (   0.8125000   0.0625000   0.8125000  )
        55           Si  tau(  55) = (   0.3125000   0.5625000   0.8125000  )
        56           Si  tau(  56) = (   0.8125000   0.5625000   0.8125000  )
        57           Si  tau(  57) = (   0.3125000   0.3125000   0.0625000  )
        58           Si  tau(  58) = (   0.8125000   0.3125000   0.0625000  )
        59           Si  tau(  59) = (   0.3125000   0.8125000   0.0625000  )
        60           Si  tau(  60) = (   0.8125000   0.8125000   0.0625000  )
        61           Si  tau(  61) = (   0.3125000   0.3125000   0.5625000  )
        62           Si  tau(  62) = (   0.8125000   0.3125000   0.5625000  )
        63           Si  tau(  63) = (   0.3125000   0.8125000   0.5625000  )
        64           Si  tau(  64) = (   0.8125000   0.8125000   0.5625000  )

     number of k points=     3
                       cart. coord. in units 2pi/alat
        k(    1) = (   0.2500000   0.2500000   0.2500000), wk =   1.0000000
        k(    2) = (  -0.2500000   0.2500000  -0.2500000), wk =   0.5000000
        k(    3) = (   0.2500000   0.2500000  -0.2500000), wk =   0.5000000

     Dense  grid:   697371 G-vectors     FFT dimensions: ( 120, 120, 120)

     Estimated max dynamical RAM per process >       1.04 GB

     Estimated total dynamical RAM >       4.16 GB

     Initial potential from superposition of free atoms

     starting charge  255.96421, renormalised to  256.00000
     Starting wfc are  256 randomized atomic wfcs
     Checking if some PAW data can be deallocated... 

     total cpu time spent up to now is       32.4 secs

     Self-consistent Calculation

     iteration #  1     ecut=    70.00 Ry     beta= 0.70
     Davidson diagonalization with overlap
     ethr =  1.00E-02,  avg # of iterations =  2.0

     Threshold (ethr) on eigenvalues was too large:
     Diagonalizing with lowered threshold

     Davidson diagonalization with overlap
     ethr =  6.98E-04,  avg # of iterations =  1.0

     total cpu time spent up to now is      121.3 secs

     total energy              =   -2990.46250210 Ry
     Harris-Foulkes estimate   =   -2990.87997697 Ry
     estimated scf accuracy    <       1.76625688 Ry

     iteration #  2     ecut=    70.00 Ry     beta= 0.70
     Davidson diagonalization with overlap
     ethr =  6.90E-04,  avg # of iterations =  1.0

     total cpu time spent up to now is      159.3 secs

     total energy              =   -2990.52628290 Ry
     Harris-Foulkes estimate   =   -2990.53055493 Ry
     estimated scf accuracy    <       0.07828163 Ry

     iteration #  3     ecut=    70.00 Ry     beta= 0.70
     Davidson diagonalization with overlap
     ethr =  3.06E-05,  avg # of iterations =  2.3

     total cpu time spent up to now is      203.8 secs

     total energy              =   -2990.53501652 Ry
     Harris-Foulkes estimate   =   -2990.53562774 Ry
     estimated scf accuracy    <       0.00172565 Ry

     iteration #  4     ecut=    70.00 Ry     beta= 0.70
     Davidson diagonalization with overlap
     ethr =  6.74E-07,  avg # of iterations =  3.0

     total cpu time spent up to now is      264.0 secs

     total energy              =   -2990.53576834 Ry
     Harris-Foulkes estimate   =   -2990.53604796 Ry
     estimated scf accuracy    <       0.00067156 Ry

     iteration #  5     ecut=    70.00 Ry     beta= 0.70
     Davidson diagonalization with overlap
     ethr =  2.62E-07,  avg # of iterations =  3.0

     total cpu time spent up to now is      314.1 secs

     total energy              =   -2990.53589756 Ry
     Harris-Foulkes estimate   =   -2990.53594509 Ry
     estimated scf accuracy    <       0.00012720 Ry

     iteration #  6     ecut=    70.00 Ry     beta= 0.70
     Davidson diagonalization with overlap
     ethr =  4.97E-08,  avg # of iterations =  3.0

     total cpu time spent up to now is      365.3 secs

     total energy              =   -2990.53591576 Ry
     Harris-Foulkes estimate   =   -2990.53593677 Ry
     estimated scf accuracy    <       0.00006795 Ry

     iteration #  7     ecut=    70.00 Ry     beta= 0.70
     Davidson diagonalization with overlap
     ethr =  2.65E-08,  avg # of iterations =  2.0

     total cpu time spent up to now is      411.4 secs

     total energy              =   -2990.53592588 Ry
     Harris-Foulkes estimate   =   -2990.53592624 Ry
     estimated scf accuracy    <       0.00000066 Ry

     iteration #  8     ecut=    70.00 Ry     beta= 0.70
     Davidson diagonalization with overlap
     ethr =  2.58E-10,  avg # of iterations =  4.0

     total cpu time spent up to now is      483.4 secs

     total energy              =   -2990.53592660 Ry
     Harris-Foulkes estimate   =   -2990.53592682 Ry
     estimated scf accuracy    <       0.00000030 Ry

     iteration #  9     ecut=    70.00 Ry     beta= 0.70
     Davidson diagonalization with overlap
     ethr =  1.17E-10,  avg # of iterations =  2.0

     total cpu time spent up to now is      530.4 secs

     total energy              =   -2990.53592653 Ry
     Harris-Foulkes estimate   =   -2990.53592666 Ry
     estimated scf accuracy    <       0.00000011 Ry

     iteration # 10     ecut=    70.00 Ry     beta= 0.70
     Davidson diagonalization with overlap
     ethr =  4.35E-11,  avg # of iterations =  3.0

     total cpu time spent up to now is      579.0 secs

     total energy              =   -2990.53592651 Ry
     Harris-Foulkes estimate   =   -2990.53592656 Ry
     estimated scf accuracy    <       0.00000002 Ry

     iteration # 11     ecut=    70.00 Ry     beta= 0.70
     Davidson diagonalization with overlap
     ethr =  8.60E-12,  avg # of iterations =  3.0

     total cpu time spent up to now is      630.2 secs

     total energy              =   -2990.53592652 Ry
     Harris-Foulkes estimate   =   -2990.53592652 Ry
     estimated scf accuracy    <          3.9E-09 Ry

     iteration # 12     ecut=    70.00 Ry     beta= 0.70
     Davidson diagonalization with overlap
     ethr =  1.51E-12,  avg # of iterations =  3.0

     total cpu time spent up to now is      684.9 secs

     total energy              =   -2990.53592652 Ry
     Harris-Foulkes estimate   =   -2990.53592652 Ry
     estimated scf accuracy    <          1.4E-09 Ry

     iteration # 13     ecut=    70.00 Ry     beta= 0.70
     Davidson diagonalization with overlap
     ethr =  5.28E-13,  avg # of iterations =  2.0

     total cpu time spent up to now is      734.0 secs

     End of self-consistent calculation

          k = 0.2500 0.2500 0.2500 ( 87251 PWs)   bands (ev):

    -5.6250  -5.0989  -5.0963  -5.0937  -4.5994  -4.5968  -4.5940  -4.1631
    -4.0662  -4.0633  -4.0607  -3.6551  -3.6498  -3.6485  -3.6454  -3.6443
    -3.6392  -3.4600  -3.4549  -3.4495  -2.9629  -2.9585  -2.9543  -2.5944
    -2.5891  -2.5842  -2.4283  -2.4235  -2.4223  -2.4193  -2.4181  -2.4131
    -0.8851  -0.8820  -0.8810  -0.8755  -0.8746  -0.8718  -0.7851  -0.7806
    -0.7759  -0.6656  -0.6621  -0.6584  -0.5830  -0.5762  -0.5690   0.1263
     0.2031   0.2055   0.2083   0.2131   0.2161   0.2185   1.0797   1.0854
     1.0909   1.4160   1.4183   1.4206   2.0251   2.0275   2.0291   2.0294
     2.0305   2.0327   2.0855   2.0882   2.0915   2.6378   2.6400   2.6425
     2.7385   2.7397   2.7425   2.7432   2.7461   2.7477   2.7948   2.7965
     2.7991   3.1021   3.1051   3.1063   3.1089   3.1101   3.1129   3.3699
     3.3716   3.3739   3.3840   3.3860   3.3882   3.7311   3.7345   3.7371
     3.7517   3.7569   3.7618   3.8366   3.8396   3.8424   4.1060   4.1113
     4.1136   4.1148   4.1173   4.1223   4.1503   4.1539   4.1571   4.4131
     4.4685   4.4710   4.4735   4.7111   4.7144   4.7179   4.7731   4.7786
     4.7850   4.9359   4.9363   5.2391   5.2436   5.2482   5.7239   5.7241

          k =-0.2500 0.2500-0.2500 ( 87251 PWs)   bands (ev):

    -5.6250  -5.0965  -5.0963  -5.0962  -4.5971  -4.5966  -4.5965  -4.1630
    -4.0639  -4.0633  -4.0631  -3.6560  -3.6490  -3.6471  -3.6469  -3.6449
    -3.6385  -3.4570  -3.4549  -3.4522  -2.9615  -2.9585  -2.9559  -2.5942
    -2.5892  -2.5843  -2.4277  -2.4234  -2.4208  -2.4208  -2.4183  -2.4134
    -0.8844  -0.8815  -0.8789  -0.8780  -0.8749  -0.8721  -0.7864  -0.7805
    -0.7748  -0.6649  -0.6623  -0.6592  -0.5828  -0.5763  -0.5690   0.1262
     0.2022   0.2065   0.2107   0.2108   0.2147   0.2196   1.0826   1.0853
     1.0883   1.4166   1.4182   1.4201   2.0263   2.0277   2.0289   2.0292
     2.0305   2.0314   2.0853   2.0882   2.0919   2.6374   2.6402   2.6425
     2.7380   2.7401   2.7422   2.7431   2.7464   2.7478   2.7953   2.7972
     2.7982   3.1046   3.1067   3.1076   3.1077   3.1084   3.1103   3.3705
     3.3719   3.3720   3.3843   3.3874   3.3876   3.7338   3.7349   3.7352
     3.7535   3.7562   3.7595   3.8370   3.8398   3.8418   4.1075   4.1130
     4.1134   4.1142   4.1154   4.1214   4.1507   4.1547   4.1563   4.4128
     4.4705   4.4709   4.4716   4.7113   4.7146   4.7176   4.7739   4.7786
     4.7840   4.9363   4.9363   5.2392   5.2437   5.2478   5.7239   5.7240

          k = 0.2500 0.2500-0.2500 ( 87251 PWs)   bands (ev):

    -5.6250  -5.0997  -5.0962  -5.0931  -4.5997  -4.5966  -4.5939  -4.1634
    -4.0664  -4.0633  -4.0602  -3.6543  -3.6477  -3.6473  -3.6470  -3.6462
    -3.6399  -3.4550  -3.4549  -3.4547  -2.9599  -2.9585  -2.9572  -2.5895
    -2.5892  -2.5889  -2.4282  -2.4215  -2.4209  -2.4208  -2.4202  -2.4130
    -0.8857  -0.8787  -0.8783  -0.8781  -0.8775  -0.8714  -0.7812  -0.7805
    -0.7802  -0.6624  -0.6621  -0.6617  -0.5816  -0.5762  -0.5704   0.1263
     0.2057   0.2098   0.2107   0.2108   0.2115   0.2161   1.0843   1.0852
     1.0866   1.4183   1.4183   1.4184   2.0254   2.0267   2.0288   2.0293
     2.0316   2.0328   2.0862   2.0880   2.0906   2.6385   2.6402   2.6416
     2.7386   2.7389   2.7432   2.7434   2.7472   2.7480   2.7934   2.7962
     2.7994   3.1029   3.1070   3.1075   3.1076   3.1082   3.1121   3.3696
     3.3716   3.3734   3.3859   3.3865   3.3869   3.7321   3.7349   3.7367
     3.7543   3.7562   3.7587   3.8384   3.8399   3.8404   4.1081   4.1136
     4.1142   4.1143   4.1148   4.1202   4.1519   4.1545   4.1547   4.4128
     4.4679   4.4715   4.4736   4.7131   4.7146   4.7162   4.7759   4.7787
     4.7820   4.9361   4.9363   5.2410   5.2437   5.2459   5.7239   5.7241

     highest occupied level (ev):     5.7241

!    total energy              =   -2990.53592653 Ry
     Harris-Foulkes estimate   =   -2990.53592652 Ry
     estimated scf accuracy    <          2.8E-10 Ry

     total all-electron energy =    -37124.671480 Ry

     The total energy is the sum of the following terms:

     one-electron contribution =     178.60476158 Ry
     hartree contribution      =      35.70143022 Ry
     xc contribution           =    -391.44049671 Ry
     ewald contribution        =    -534.00661353 Ry
     one-center paw contrib.   =   -2279.39500809 Ry

     convergence has been achieved in  13 iterations

     Forces acting on atoms (cartesian axes, Ry/au):

     atom    1 type  1   force =    -0.01587917   -0.00003815    0.00003815
     atom    2 type  1   force =     0.00395003   -0.00270400    0.00270400
     atom    3 type  1   force =     0.00008079   -0.00002474    0.00002634
     atom    4 type  1   force =    -0.00006808   -0.00003890    0.00005030
     atom    5 type  1   force =     0.00008079   -0.00002634    0.00002474
     atom    6 type  1   force =    -0.00006808   -0.00005030    0.00003890
     atom    7 type  1   force =    -0.00049640   -0.00003170    0.00003170
     atom    8 type  1   force =     0.00027897   -0.00002768    0.00002768
     atom    9 type  1   force =    -0.00050170    0.00013838    0.00008758
     atom   10 type  1   force =    -0.00006220    0.00004831   -0.00004082
     atom   11 type  1   force =    -0.00053675    0.00014792   -0.00014792
     atom   12 type  1   force =     0.00392812    0.00271362   -0.00271362
     atom   13 type  1   force =    -0.00054552   -0.00007792    0.00007792
     atom   14 type  1   force =     0.00025556    0.00001796   -0.00001796
     atom   15 type  1   force =    -0.00050170   -0.00008758   -0.00013838
     atom   16 type  1   force =    -0.00006220    0.00004082   -0.00004831
     atom   17 type  1   force =     0.00021855   -0.00007176    0.00026512
     atom   18 type  1   force =     0.00404883    0.00236803    0.00224893
     atom   19 type  1   force =     0.00007064    0.00001664   -0.00004790
     atom   20 type  1   force =    -0.00001719    0.00002815    0.00012772
     atom   21 type  1   force =     0.00025941    0.00013861   -0.00020096
     atom   22 type  1   force =     0.00017836    0.00016589    0.00027008
     atom   23 type  1   force =     0.00002026    0.00004037    0.00010778
     atom   24 type  1   force =     0.00029487    0.00003677   -0.00004863
     atom   25 type  1   force =     0.00025941    0.00020096   -0.00013861
     atom   26 type  1   force =     0.00017836   -0.00027008   -0.00016589
     atom   27 type  1   force =     0.00021855   -0.00026512    0.00007176
     atom   28 type  1   force =     0.00404883   -0.00224893   -0.00236803
     atom   29 type  1   force =     0.00002026   -0.00010778   -0.00004037
     atom   30 type  1   force =     0.00029487    0.00004863   -0.00003677
     atom   31 type  1   force =     0.00007064    0.00004790   -0.00001664
     atom   32 type  1   force =    -0.00001719   -0.00012772   -0.00002815
     atom   33 type  1   force =     0.00002032    0.00004078    0.00010723
     atom   34 type  1   force =     0.00029799    0.00003727   -0.00004846
     atom   35 type  1   force =     0.00026398    0.00014048   -0.00020780
     atom   36 type  1   force =     0.00017041    0.00016014    0.00026604
     atom   37 type  1   force =     0.00006812    0.00001497   -0.00004954
     atom   38 type  1   force =    -0.00001858    0.00002935    0.00012668
     atom   39 type  1   force =     0.00022468   -0.00007557    0.00027070
     atom   40 type  1   force =     0.00415974    0.00259444    0.00247753
     atom   41 type  1   force =     0.00022468   -0.00027070    0.00007557
     atom   42 type  1   force =     0.00415974   -0.00247753   -0.00259444
     atom   43 type  1   force =     0.00026398    0.00020780   -0.00014048
     atom   44 type  1   force =     0.00017041   -0.00026604   -0.00016014
     atom   45 type  1   force =     0.00006812    0.00004954   -0.00001497
     atom   46 type  1   force =    -0.00001858   -0.00012668   -0.00002935
     atom   47 type  1   force =     0.00002032   -0.00010723   -0.00004078
     atom   48 type  1   force =     0.00029799    0.00004846   -0.00003727
     atom   49 type  1   force =    -0.00006510   -0.00003761    0.00005139
     atom   50 type  1   force =     0.00008147   -0.00002637    0.00002869
     atom   51 type  1   force =     0.00383329   -0.00248172    0.00248172
     atom   52 type  1   force =    -0.01587995   -0.00003811    0.00003811
     atom   53 type  1   force =     0.00027657   -0.00002765    0.00002765
     atom   54 type  1   force =    -0.00049682   -0.00003106    0.00003106
     atom   55 type  1   force =    -0.00006510   -0.00005139    0.00003761
     atom   56 type  1   force =     0.00008147   -0.00002869    0.00002637
     atom   57 type  1   force =    -0.00005846    0.00004219   -0.00004678
     atom   58 type  1   force =    -0.00049650   -0.00008071   -0.00013610
     atom   59 type  1   force =     0.00025208    0.00001810   -0.00001810
     atom   60 type  1   force =    -0.00055086   -0.00008296    0.00008296
     atom   61 type  1   force =     0.00381125    0.00249135   -0.00249135
     atom   62 type  1   force =    -0.00054167    0.00015207   -0.00015207
     atom   63 type  1   force =    -0.00005846    0.00004678   -0.00004219
     atom   64 type  1   force =    -0.00049650    0.00013610    0.00008071

     Total force =     0.027175     Total SCF correction =     0.000032


     Computing stress (Cartesian axis) and pressure

          total   stress  (Ry/bohr**3)                   (kbar)     P=    0.12
   0.00000059  -0.00000000   0.00000000          0.09     -0.00      0.00
  -0.00000000   0.00000089   0.00000000         -0.00      0.13      0.00
   0.00000000   0.00000000   0.00000089          0.00      0.00      0.13


     init_run     :     31.54s CPU     32.31s WALL (       1 calls)
     electrons    :    685.43s CPU    701.62s WALL (       1 calls)
     forces       :     10.47s CPU     10.67s WALL (       1 calls)
     stress       :     45.07s CPU     45.36s WALL (       1 calls)

     Called by init_run:
     wfcinit      :     28.40s CPU     29.07s WALL (       1 calls)
     potinit      :      1.07s CPU      1.10s WALL (       1 calls)

     Called by electrons:
     c_bands      :    564.41s CPU    577.46s WALL (      14 calls)
     sum_band     :    104.04s CPU    106.33s WALL (      14 calls)
     v_of_rho     :      5.56s CPU      5.68s WALL (      14 calls)
     newd         :      3.04s CPU      3.80s WALL (      14 calls)
     PAW_pot      :      8.18s CPU      8.19s WALL (      14 calls)
     mix_rho      :      1.24s CPU      1.29s WALL (      14 calls)

     Called by c_bands:
     init_us_2    :      5.58s CPU      5.62s WALL (      93 calls)
     cegterg      :    553.02s CPU    566.05s WALL (      42 calls)

     Called by sum_band:
     sum_band:bec :      0.01s CPU      0.01s WALL (      42 calls)
     addusdens    :      3.60s CPU      4.46s WALL (      14 calls)

     Called by *egterg:
     h_psi        :    490.86s CPU    499.18s WALL (     148 calls)
     s_psi        :     27.93s CPU     27.95s WALL (     148 calls)
     g_psi        :      0.92s CPU      0.93s WALL (     103 calls)
     cdiaghg      :      3.33s CPU      3.30s WALL (     142 calls)

     Called by h_psi:
     h_psi:pot    :    487.87s CPU    496.14s WALL (     148 calls)
     h_psi:calbec :     28.06s CPU     28.07s WALL (     148 calls)
     vloc_psi     :    432.09s CPU    440.33s WALL (     148 calls)
     add_vuspsi   :     27.73s CPU     27.74s WALL (     148 calls)

     General routines
     calbec       :     41.40s CPU     41.44s WALL (     205 calls)
     fft          :      4.82s CPU      5.07s WALL (     209 calls)
     fftw         :    437.98s CPU    446.35s WALL (   36724 calls)

     Parallel routines
     fft_scatt_xy :     74.98s CPU     74.94s WALL (   36933 calls)
     fft_scatt_yz :     80.37s CPU     87.03s WALL (   36933 calls)

     PWSCF        : 12m52.61s CPU    13m10.08s WALL


   This run was terminated on:  16:44:51  25Oct2021            

=------------------------------------------------------------------------------=
   JOB DONE.
=------------------------------------------------------------------------------=
Note: The following floating-point exceptions are signalling: IEEE_UNDERFLOW_FLAG IEEE_DENORMAL
