
     Program PWSCF v.6.2 (svn rev. 13949:13950) starts on 25Oct2021 at  9:18:29 

     This program is part of the open-source Quantum ESPRESSO suite
     for quantum simulation of materials; please cite
         "P. Giannozzi et al., J. Phys.:Condens. Matter 21 395502 (2009);
         "P. Giannozzi et al., J. Phys.:Condens. Matter 29 465901 (2017);
          URL http://www.quantum-espresso.org", 
     in publications or presentations arising from this work. More details at
     http://www.quantum-espresso.org/quote

     Parallel version (MPI), running on     4 processors

     MPI processes distributed on     1 nodes
     R & G space division:  proc/nbgrp/npool/nimage =       4
     Reading input from headeradd_supercell-00074.in

     Current dimensions of program PWSCF are:
     Max number of different atomic species (ntypx) = 10
     Max number of k-points (npk) =  40000
     Max angular momentum in pseudopotentials (lmaxx) =  3
     Message from routine iosys:
     minimal I/O required, wf_collect reset to FALSE
               file Si.pbe-n-kjpaw_psl.0.1.UPF: wavefunction(s)  3S renormalized

     Subspace diagonalization in iterative solution of the eigenvalue problem:
     a serial algorithm will be used


     Parallelization info
     --------------------
     sticks:   dense  smooth     PW     G-vecs:    dense   smooth      PW
     Min        2372    2372    612               174341   174341   22844
     Max        2374    2374    613               174344   174344   22847
     Sum        9493    9493   2449               697371   697371   91383



     bravais-lattice index     =            0
     lattice parameter (alat)  =      20.6591  a.u.
     unit-cell volume          =    8817.2783 (a.u.)^3
     number of atoms/cell      =           64
     number of atomic types    =            1
     number of electrons       =       256.00
     number of Kohn-Sham states=          128
     kinetic-energy cutoff     =      70.0000  Ry
     charge density cutoff     =     280.0000  Ry
     convergence threshold     =      1.0E-09
     mixing beta               =       0.7000
     number of iterations used =            8  plain     mixing
     Exchange-correlation      =  SLA  PW   PBX  PBC ( 1  4  3  4 0 0)

     celldm(1)=  20.659106  celldm(2)=   0.000000  celldm(3)=   0.000000
     celldm(4)=   0.000000  celldm(5)=   0.000000  celldm(6)=   0.000000

     crystal axes: (cart. coord. in units of alat)
               a(1) = (   1.000000   0.000000   0.000000 )  
               a(2) = (   0.000000   1.000000   0.000000 )  
               a(3) = (   0.000000   0.000000   1.000000 )  

     reciprocal axes: (cart. coord. in units 2 pi/alat)
               b(1) = (  1.000000  0.000000  0.000000 )  
               b(2) = (  0.000000  1.000000  0.000000 )  
               b(3) = (  0.000000  0.000000  1.000000 )  


     PseudoPot. # 1 for Si read from file:
     /home/uezono/pseudo/Si.pbe-n-kjpaw_psl.0.1.UPF
     MD5 check sum: 0810ef13ebffcf5dbabd57b297315270
     Pseudo is Projector augmented-wave + core cor, Zval =  4.0
     Generated using "atomic" code by A. Dal Corso  v.5.0.2 svn rev. 9415
     Shape of augmentation charge: PSQ
     Using radial grid of 1141 points,  4 beta functions with: 
                l(1) =   0
                l(2) =   0
                l(3) =   1
                l(4) =   1
     Q(r) pseudized with 0 coefficients 


     atomic species   valence    mass     pseudopotential
        Si             4.00    28.08550     Si( 1.00)

     No symmetry found



   Cartesian axes

     site n.     atom                  positions (alat units)
         1           Si  tau(   1) = (   0.4404043   0.4375000   0.4375000  )
         2           Si  tau(   2) = (   0.9375000   0.4375000   0.4375000  )
         3           Si  tau(   3) = (   0.4375000   0.9375000   0.4375000  )
         4           Si  tau(   4) = (   0.9375000   0.9375000   0.4375000  )
         5           Si  tau(   5) = (   0.4375000   0.4375000   0.9375000  )
         6           Si  tau(   6) = (   0.9375000   0.4375000   0.9375000  )
         7           Si  tau(   7) = (   0.4375000   0.9375000   0.9375000  )
         8           Si  tau(   8) = (   0.9375000   0.9375000   0.9375000  )
         9           Si  tau(   9) = (   0.4375000   0.1875000   0.1875000  )
        10           Si  tau(  10) = (   0.9375000   0.1875000   0.1875000  )
        11           Si  tau(  11) = (   0.4375000   0.6875000   0.1875000  )
        12           Si  tau(  12) = (   0.9375000   0.6875000   0.1875000  )
        13           Si  tau(  13) = (   0.4375000   0.1875000   0.6875000  )
        14           Si  tau(  14) = (   0.9375000   0.1875000   0.6875000  )
        15           Si  tau(  15) = (   0.4375000   0.6875000   0.6875000  )
        16           Si  tau(  16) = (   0.9375000   0.6875000   0.6875000  )
        17           Si  tau(  17) = (   0.1875000   0.4375000   0.1875000  )
        18           Si  tau(  18) = (   0.6875000   0.4375000   0.1875000  )
        19           Si  tau(  19) = (   0.1875000   0.9375000   0.1875000  )
        20           Si  tau(  20) = (   0.6875000   0.9375000   0.1875000  )
        21           Si  tau(  21) = (   0.1875000   0.4375000   0.6875000  )
        22           Si  tau(  22) = (   0.6875000   0.4375000   0.6875000  )
        23           Si  tau(  23) = (   0.1875000   0.9375000   0.6875000  )
        24           Si  tau(  24) = (   0.6875000   0.9375000   0.6875000  )
        25           Si  tau(  25) = (   0.1875000   0.1875000   0.4375000  )
        26           Si  tau(  26) = (   0.6875000   0.1875000   0.4375000  )
        27           Si  tau(  27) = (   0.1875000   0.6875000   0.4375000  )
        28           Si  tau(  28) = (   0.6875000   0.6875000   0.4375000  )
        29           Si  tau(  29) = (   0.1875000   0.1875000   0.9375000  )
        30           Si  tau(  30) = (   0.6875000   0.1875000   0.9375000  )
        31           Si  tau(  31) = (   0.1875000   0.6875000   0.9375000  )
        32           Si  tau(  32) = (   0.6875000   0.6875000   0.9375000  )
        33           Si  tau(  33) = (   0.0625000   0.0625000   0.0625000  )
        34           Si  tau(  34) = (   0.5625000   0.0625000   0.0625000  )
        35           Si  tau(  35) = (   0.0625000   0.5625000   0.0625000  )
        36           Si  tau(  36) = (   0.5625000   0.5625000   0.0654043  )
        37           Si  tau(  37) = (   0.0625000   0.0625000   0.5625000  )
        38           Si  tau(  38) = (   0.5625000   0.0625000   0.5625000  )
        39           Si  tau(  39) = (   0.0625000   0.5625000   0.5625000  )
        40           Si  tau(  40) = (   0.5625000   0.5625000   0.5625000  )
        41           Si  tau(  41) = (   0.0625000   0.3125000   0.3125000  )
        42           Si  tau(  42) = (   0.5625000   0.3125000   0.3125000  )
        43           Si  tau(  43) = (   0.0625000   0.8125000   0.3125000  )
        44           Si  tau(  44) = (   0.5625000   0.8125000   0.3125000  )
        45           Si  tau(  45) = (   0.0625000   0.3125000   0.8125000  )
        46           Si  tau(  46) = (   0.5625000   0.3125000   0.8125000  )
        47           Si  tau(  47) = (   0.0625000   0.8125000   0.8125000  )
        48           Si  tau(  48) = (   0.5625000   0.8125000   0.8125000  )
        49           Si  tau(  49) = (   0.3125000   0.0625000   0.3125000  )
        50           Si  tau(  50) = (   0.8125000   0.0625000   0.3125000  )
        51           Si  tau(  51) = (   0.3125000   0.5625000   0.3125000  )
        52           Si  tau(  52) = (   0.8125000   0.5625000   0.3125000  )
        53           Si  tau(  53) = (   0.3125000   0.0625000   0.8125000  )
        54           Si  tau(  54) = (   0.8125000   0.0625000   0.8125000  )
        55           Si  tau(  55) = (   0.3125000   0.5625000   0.8125000  )
        56           Si  tau(  56) = (   0.8125000   0.5625000   0.8125000  )
        57           Si  tau(  57) = (   0.3125000   0.3125000   0.0625000  )
        58           Si  tau(  58) = (   0.8125000   0.3125000   0.0625000  )
        59           Si  tau(  59) = (   0.3125000   0.8125000   0.0625000  )
        60           Si  tau(  60) = (   0.8125000   0.8125000   0.0625000  )
        61           Si  tau(  61) = (   0.3125000   0.3125000   0.5625000  )
        62           Si  tau(  62) = (   0.8125000   0.3125000   0.5625000  )
        63           Si  tau(  63) = (   0.3125000   0.8125000   0.5625000  )
        64           Si  tau(  64) = (   0.8125000   0.8125000   0.5625000  )

     number of k points=     4
                       cart. coord. in units 2pi/alat
        k(    1) = (   0.2500000   0.2500000   0.2500000), wk =   0.5000000
        k(    2) = (  -0.2500000  -0.2500000   0.2500000), wk =   0.5000000
        k(    3) = (  -0.2500000   0.2500000  -0.2500000), wk =   0.5000000
        k(    4) = (   0.2500000  -0.2500000  -0.2500000), wk =   0.5000000

     Dense  grid:   697371 G-vectors     FFT dimensions: ( 120, 120, 120)

     Estimated max dynamical RAM per process >       1.08 GB

     Estimated total dynamical RAM >       4.33 GB

     Initial potential from superposition of free atoms

     starting charge  255.96421, renormalised to  256.00000
     Starting wfc are  256 randomized atomic wfcs
     Checking if some PAW data can be deallocated... 

     total cpu time spent up to now is       41.1 secs

     Self-consistent Calculation

     iteration #  1     ecut=    70.00 Ry     beta= 0.70
     Davidson diagonalization with overlap
     ethr =  1.00E-02,  avg # of iterations =  2.0

     Threshold (ethr) on eigenvalues was too large:
     Diagonalizing with lowered threshold

     Davidson diagonalization with overlap
     ethr =  6.98E-04,  avg # of iterations =  1.0

     total cpu time spent up to now is      155.6 secs

     total energy              =   -2990.46247623 Ry
     Harris-Foulkes estimate   =   -2990.88045452 Ry
     estimated scf accuracy    <       1.76653184 Ry

     iteration #  2     ecut=    70.00 Ry     beta= 0.70
     Davidson diagonalization with overlap
     ethr =  6.90E-04,  avg # of iterations =  1.0

     total cpu time spent up to now is      204.3 secs

     total energy              =   -2990.52628283 Ry
     Harris-Foulkes estimate   =   -2990.53059730 Ry
     estimated scf accuracy    <       0.07826886 Ry

     iteration #  3     ecut=    70.00 Ry     beta= 0.70
     Davidson diagonalization with overlap
     ethr =  3.06E-05,  avg # of iterations =  2.2

     total cpu time spent up to now is      261.4 secs

     total energy              =   -2990.53497222 Ry
     Harris-Foulkes estimate   =   -2990.53564867 Ry
     estimated scf accuracy    <       0.00179848 Ry

     iteration #  4     ecut=    70.00 Ry     beta= 0.70
     Davidson diagonalization with overlap
     ethr =  7.03E-07,  avg # of iterations =  3.8

     total cpu time spent up to now is      343.9 secs

     total energy              =   -2990.53554300 Ry
     Harris-Foulkes estimate   =   -2990.53625841 Ry
     estimated scf accuracy    <       0.00199877 Ry

     iteration #  5     ecut=    70.00 Ry     beta= 0.70
     Davidson diagonalization with overlap
     ethr =  7.03E-07,  avg # of iterations =  3.0

     total cpu time spent up to now is      405.1 secs

     total energy              =   -2990.53588311 Ry
     Harris-Foulkes estimate   =   -2990.53595914 Ry
     estimated scf accuracy    <       0.00021969 Ry

     iteration #  6     ecut=    70.00 Ry     beta= 0.70
     Davidson diagonalization with overlap
     ethr =  8.58E-08,  avg # of iterations =  3.0

     total cpu time spent up to now is      468.7 secs

     total energy              =   -2990.53591803 Ry
     Harris-Foulkes estimate   =   -2990.53593998 Ry
     estimated scf accuracy    <       0.00006099 Ry

     iteration #  7     ecut=    70.00 Ry     beta= 0.70
     Davidson diagonalization with overlap
     ethr =  2.38E-08,  avg # of iterations =  2.0

     total cpu time spent up to now is      528.8 secs

     total energy              =   -2990.53592871 Ry
     Harris-Foulkes estimate   =   -2990.53592947 Ry
     estimated scf accuracy    <       0.00000158 Ry

     iteration #  8     ecut=    70.00 Ry     beta= 0.70
     Davidson diagonalization with overlap
     ethr =  6.19E-10,  avg # of iterations =  3.0

     total cpu time spent up to now is      614.4 secs

     total energy              =   -2990.53592968 Ry
     Harris-Foulkes estimate   =   -2990.53592997 Ry
     estimated scf accuracy    <       0.00000054 Ry

     iteration #  9     ecut=    70.00 Ry     beta= 0.70
     Davidson diagonalization with overlap
     ethr =  2.12E-10,  avg # of iterations =  3.0

     total cpu time spent up to now is      675.4 secs

     total energy              =   -2990.53592963 Ry
     Harris-Foulkes estimate   =   -2990.53592980 Ry
     estimated scf accuracy    <       0.00000021 Ry

     iteration # 10     ecut=    70.00 Ry     beta= 0.70
     Davidson diagonalization with overlap
     ethr =  8.39E-11,  avg # of iterations =  2.0

     total cpu time spent up to now is      734.6 secs

     total energy              =   -2990.53592960 Ry
     Harris-Foulkes estimate   =   -2990.53592967 Ry
     estimated scf accuracy    <       0.00000002 Ry

     iteration # 11     ecut=    70.00 Ry     beta= 0.70
     Davidson diagonalization with overlap
     ethr =  8.71E-12,  avg # of iterations =  3.0

     total cpu time spent up to now is      803.0 secs

     total energy              =   -2990.53592961 Ry
     Harris-Foulkes estimate   =   -2990.53592961 Ry
     estimated scf accuracy    <          4.6E-09 Ry

     iteration # 12     ecut=    70.00 Ry     beta= 0.70
     Davidson diagonalization with overlap
     ethr =  1.79E-12,  avg # of iterations =  3.0

     total cpu time spent up to now is      878.2 secs

     total energy              =   -2990.53592961 Ry
     Harris-Foulkes estimate   =   -2990.53592961 Ry
     estimated scf accuracy    <          2.4E-09 Ry

     iteration # 13     ecut=    70.00 Ry     beta= 0.70
     Davidson diagonalization with overlap
     ethr =  9.54E-13,  avg # of iterations =  3.0

     total cpu time spent up to now is      944.5 secs

     End of self-consistent calculation

          k = 0.2500 0.2500 0.2500 ( 87251 PWs)   bands (ev):

    -5.6250  -5.1005  -5.0962  -5.0922  -4.6007  -4.5967  -4.5928  -4.1632
    -4.0676  -4.0634  -4.0590  -3.6548  -3.6497  -3.6490  -3.6469  -3.6443
    -3.6376  -3.4590  -3.4548  -3.4506  -2.9630  -2.9592  -2.9535  -2.5931
    -2.5891  -2.5855  -2.4287  -2.4233  -2.4225  -2.4209  -2.4183  -2.4109
    -0.8871  -0.8813  -0.8802  -0.8780  -0.8748  -0.8688  -0.7838  -0.7805
    -0.7769  -0.6675  -0.6621  -0.6569  -0.5827  -0.5772  -0.5682   0.1263
     0.2032   0.2069   0.2081   0.2108   0.2152   0.2203   1.0801   1.0846
     1.0913   1.4140   1.4181   1.4228   2.0237   2.0262   2.0290   2.0304
     2.0319   2.0337   2.0851   2.0876   2.0919   2.6383   2.6401   2.6418
     2.7370   2.7393   2.7423   2.7448   2.7464   2.7490   2.7920   2.7970
     2.8004   3.1015   3.1052   3.1066   3.1073   3.1107   3.1140   3.3689
     3.3720   3.3737   3.3818   3.3869   3.3906   3.7307   3.7346   3.7385
     3.7538   3.7565   3.7591   3.8365   3.8386   3.8435   4.1063   4.1115
     4.1135   4.1147   4.1165   4.1225   4.1502   4.1527   4.1584   4.4132
     4.4678   4.4708   4.4743   4.7109   4.7135   4.7188   4.7735   4.7783
     4.7852   4.9319   4.9406   5.2386   5.2425   5.2494   5.7190   5.7289

          k =-0.2500-0.2500 0.2500 ( 87251 PWs)   bands (ev):

    -5.6251  -5.0994  -5.0960  -5.0933  -4.5998  -4.5964  -4.5941  -4.1641
    -4.0672  -4.0632  -4.0608  -3.6529  -3.6502  -3.6476  -3.6473  -3.6422
    -3.6393  -3.4576  -3.4548  -3.4498  -2.9648  -2.9588  -2.9578  -2.5924
    -2.5890  -2.5852  -2.4269  -2.4246  -2.4215  -2.4210  -2.4166  -2.4121
    -0.8854  -0.8837  -0.8787  -0.8783  -0.8758  -0.8709  -0.7847  -0.7810
    -0.7785  -0.6680  -0.6622  -0.6612  -0.5775  -0.5745  -0.5632   0.1300
     0.2026   0.2058   0.2097   0.2105   0.2122   0.2148   1.0828   1.0858
     1.0946   1.4151   1.4183   1.4215   2.0249   2.0262   2.0282   2.0299
     2.0310   2.0337   2.0844   2.0875   2.0896   2.6401   2.6424   2.6436
     2.7367   2.7382   2.7408   2.7418   2.7459   2.7473   2.7913   2.7937
     2.7978   3.1031   3.1066   3.1069   3.1079   3.1100   3.1120   3.3688
     3.3698   3.3723   3.3824   3.3857   3.3875   3.7338   3.7364   3.7389
     3.7560   3.7597   3.7638   3.8363   3.8381   3.8408   4.1126   4.1136
     4.1139   4.1163   4.1193   4.1253   4.1502   4.1521   4.1555   4.4170
     4.4668   4.4678   4.4714   4.7098   4.7125   4.7150   4.7789   4.7810
     4.7911   4.9325   4.9376   5.2373   5.2408   5.2442   5.7188   5.7244

          k =-0.2500 0.2500-0.2500 ( 87251 PWs)   bands (ev):

    -5.6250  -5.1009  -5.0955  -5.0926  -4.6011  -4.5960  -4.5931  -4.1631
    -4.0681  -4.0623  -4.0596  -3.6557  -3.6499  -3.6482  -3.6451  -3.6449
    -3.6386  -3.4590  -3.4548  -3.4505  -2.9640  -2.9573  -2.9544  -2.5930
    -2.5891  -2.5856  -2.4289  -2.4240  -2.4222  -2.4192  -2.4183  -2.4119
    -0.8874  -0.8824  -0.8798  -0.8766  -0.8745  -0.8693  -0.7837  -0.7807
    -0.7769  -0.6675  -0.6622  -0.6568  -0.5832  -0.5763  -0.5686   0.1263
     0.2020   0.2056   0.2092   0.2127   0.2159   0.2191   1.0796   1.0857
     1.0908   1.4138   1.4186   1.4226   2.0230   2.0275   2.0288   2.0301
     2.0316   2.0339   2.0847   2.0881   2.0917   2.6378   2.6400   2.6424
     2.7378   2.7387   2.7419   2.7438   2.7470   2.7496   2.7917   2.7976
     2.8003   3.0999   3.1052   3.1079   3.1086   3.1106   3.1132   3.3701
     3.3718   3.3733   3.3819   3.3861   3.3906   3.7307   3.7344   3.7381
     3.7522   3.7565   3.7613   3.8359   3.8399   3.8428   4.1060   4.1118
     4.1136   4.1153   4.1168   4.1217   4.1495   4.1540   4.1577   4.4129
     4.4687   4.4713   4.4731   4.7104   4.7145   4.7184   4.7732   4.7787
     4.7850   4.9318   4.9406   5.2381   5.2437   5.2488   5.7191   5.7289

          k = 0.2500-0.2500-0.2500 ( 87251 PWs)   bands (ev):

    -5.6250  -5.1009  -5.0948  -5.0937  -4.6011  -4.5949  -4.5940  -4.1621
    -4.0674  -4.0614  -4.0601  -3.6547  -3.6537  -3.6461  -3.6444  -3.6435
    -3.6428  -3.4596  -3.4548  -3.4520  -2.9614  -2.9550  -2.9537  -2.5935
    -2.5893  -2.5860  -2.4291  -2.4256  -2.4198  -2.4188  -2.4171  -2.4160
    -0.8872  -0.8826  -0.8769  -0.8755  -0.8734  -0.8714  -0.7828  -0.7800
    -0.7761  -0.6631  -0.6618  -0.6560  -0.5860  -0.5798  -0.5753   0.1226
     0.2046   0.2061   0.2119   0.2152   0.2162   0.2196   1.0791   1.0821
     1.0876   1.4159   1.4181   1.4212   2.0248   2.0272   2.0289   2.0300
     2.0316   2.0330   2.0866   2.0902   2.0914   2.6366   2.6377   2.6401
     2.7401   2.7412   2.7422   2.7447   2.7481   2.7500   2.7956   2.7992
     2.8018   3.1015   3.1030   3.1073   3.1091   3.1105   3.1130   3.3713
     3.3735   3.3743   3.3844   3.3872   3.3904   3.7282   3.7338   3.7359
     3.7498   3.7534   3.7568   3.8380   3.8401   3.8441   4.1031   4.1083
     4.1119   4.1135   4.1155   4.1167   4.1520   4.1542   4.1589   4.4088
     4.4711   4.4739   4.4749   4.7132   4.7156   4.7205   4.7706   4.7736
     4.7781   4.9349   4.9400   5.2422   5.2451   5.2516   5.7235   5.7293

     highest occupied level (ev):     5.7293

!    total energy              =   -2990.53592961 Ry
     Harris-Foulkes estimate   =   -2990.53592961 Ry
     estimated scf accuracy    <          5.2E-10 Ry

     total all-electron energy =    -37124.671483 Ry

     The total energy is the sum of the following terms:

     one-electron contribution =     178.60376639 Ry
     hartree contribution      =      35.70192134 Ry
     xc contribution           =    -391.44049858 Ry
     ewald contribution        =    -534.00610964 Ry
     one-center paw contrib.   =   -2279.39500913 Ry

     convergence has been achieved in  13 iterations

     Forces acting on atoms (cartesian axes, Ry/au):

     atom    1 type  1   force =    -0.01582708    0.00003595   -0.00001271
     atom    2 type  1   force =     0.00004828    0.00002873    0.00002826
     atom    3 type  1   force =     0.00008363    0.00002675    0.00002798
     atom    4 type  1   force =     0.00002365    0.00003131   -0.00002174
     atom    5 type  1   force =     0.00253643    0.00248109    0.00381097
     atom    6 type  1   force =     0.00002995    0.00005135   -0.00005941
     atom    7 type  1   force =    -0.00042273    0.00003758   -0.00005945
     atom    8 type  1   force =     0.00005096    0.00002778    0.00025172
     atom    9 type  1   force =    -0.00057839    0.00015234    0.00005328
     atom   10 type  1   force =    -0.00002926    0.00003673    0.00026534
     atom   11 type  1   force =    -0.00322792    0.00281574    0.00381968
     atom   12 type  1   force =    -0.00003911    0.00006017   -0.00007042
     atom   13 type  1   force =    -0.00054988   -0.00008549    0.00013537
     atom   14 type  1   force =    -0.00003127    0.00002112   -0.00001217
     atom   15 type  1   force =    -0.00056642   -0.00007486   -0.00012714
     atom   16 type  1   force =    -0.00002562    0.00001777    0.00001681
     atom   17 type  1   force =     0.00027009   -0.00016075    0.00016663
     atom   18 type  1   force =     0.00294229   -0.00281857    0.00369605
     atom   19 type  1   force =     0.00007042   -0.00003724    0.00017903
     atom   20 type  1   force =     0.00009222   -0.00004800    0.00001558
     atom   21 type  1   force =     0.00025566    0.00008303   -0.00020158
     atom   22 type  1   force =     0.00027628    0.00007508    0.00021980
     atom   23 type  1   force =     0.00007358   -0.00002165    0.00005511
     atom   24 type  1   force =     0.00006866   -0.00001498   -0.00005005
     atom   25 type  1   force =     0.00020055    0.00019610   -0.00013132
     atom   26 type  1   force =     0.00020902   -0.00025974   -0.00008580
     atom   27 type  1   force =     0.00020482   -0.00025550    0.00013782
     atom   28 type  1   force =     0.00019984    0.00019536    0.00010125
     atom   29 type  1   force =     0.00001459   -0.00010494    0.00024280
     atom   30 type  1   force =    -0.00000914    0.00003842   -0.00006907
     atom   31 type  1   force =     0.00000472    0.00002598   -0.00005025
     atom   32 type  1   force =    -0.00243900   -0.00255711    0.00382022
     atom   33 type  1   force =    -0.00002192    0.00003101   -0.00044370
     atom   34 type  1   force =     0.00025573    0.00002748    0.00008225
     atom   35 type  1   force =     0.00002539    0.00002676    0.00007886
     atom   36 type  1   force =    -0.00006123    0.00005021   -0.01582825
     atom   37 type  1   force =     0.00002585    0.00002456    0.00005086
     atom   38 type  1   force =    -0.00006060    0.00003845    0.00004344
     atom   39 type  1   force =    -0.00001316    0.00003798    0.00003168
     atom   40 type  1   force =     0.00392863    0.00270512    0.00272609
     atom   41 type  1   force =    -0.00000360    0.00003758    0.00000443
     atom   42 type  1   force =     0.00404204   -0.00293732   -0.00246631
     atom   43 type  1   force =     0.00001656   -0.00010026    0.00001598
     atom   44 type  1   force =    -0.00017478    0.00019450    0.00018791
     atom   45 type  1   force =     0.00003487   -0.00010389    0.00001710
     atom   46 type  1   force =     0.00004925    0.00017656    0.00019255
     atom   47 type  1   force =    -0.00003145    0.00004617    0.00001066
     atom   48 type  1   force =     0.00014633   -0.00025422    0.00020321
     atom   49 type  1   force =     0.00001759   -0.00002818    0.00009400
     atom   50 type  1   force =    -0.00004858   -0.00003596    0.00007138
     atom   51 type  1   force =     0.00357861   -0.00236745    0.00271939
     atom   52 type  1   force =     0.00021975   -0.00015181    0.00027578
     atom   53 type  1   force =     0.00017569   -0.00001866    0.00006927
     atom   54 type  1   force =     0.00005474   -0.00004074    0.00007284
     atom   55 type  1   force =     0.00016822    0.00005835    0.00026845
     atom   56 type  1   force =    -0.00019941   -0.00013869    0.00025752
     atom   57 type  1   force =    -0.00016807   -0.00005846   -0.00056124
     atom   58 type  1   force =    -0.00008654    0.00014229   -0.00055504
     atom   59 type  1   force =     0.00036694   -0.00008602   -0.00055580
     atom   60 type  1   force =     0.00008711    0.00014095   -0.00055516
     atom   61 type  1   force =     0.00380073    0.00247196   -0.00248171
     atom   62 type  1   force =    -0.00002229    0.00004675   -0.00003857
     atom   63 type  1   force =    -0.00004945    0.00002865   -0.00005204
     atom   64 type  1   force =     0.00003720    0.00003675   -0.00002843

     Total force =     0.027149     Total SCF correction =     0.000045


     Computing stress (Cartesian axis) and pressure

          total   stress  (Ry/bohr**3)                   (kbar)     P=    0.12
   0.00000074  -0.00000238   0.00000000          0.11     -0.35      0.00
  -0.00000238   0.00000089   0.00000238         -0.35      0.13      0.35
   0.00000000   0.00000238   0.00000074          0.00      0.35      0.11


     init_run     :     40.08s CPU     40.96s WALL (       1 calls)
     electrons    :    881.37s CPU    903.44s WALL (       1 calls)
     forces       :     12.94s CPU     13.57s WALL (       1 calls)
     stress       :     57.61s CPU     57.88s WALL (       1 calls)

     Called by init_run:
     wfcinit      :     37.02s CPU     37.79s WALL (       1 calls)
     potinit      :      1.07s CPU      1.09s WALL (       1 calls)

     Called by electrons:
     c_bands      :    732.02s CPU    750.55s WALL (      14 calls)
     sum_band     :    132.73s CPU    135.31s WALL (      14 calls)
     v_of_rho     :      5.44s CPU      5.58s WALL (      14 calls)
     newd         :      2.87s CPU      3.73s WALL (      14 calls)
     PAW_pot      :      8.10s CPU      8.10s WALL (      14 calls)
     mix_rho      :      1.24s CPU      1.26s WALL (      14 calls)

     Called by c_bands:
     init_us_2    :      7.74s CPU      7.81s WALL (     124 calls)
     cegterg      :    717.21s CPU    735.69s WALL (      56 calls)

     Called by sum_band:
     sum_band:bec :      0.02s CPU      0.02s WALL (      56 calls)
     addusdens    :      3.51s CPU      4.36s WALL (      14 calls)

     Called by *egterg:
     h_psi        :    637.27s CPU    649.43s WALL (     200 calls)
     s_psi        :     36.80s CPU     36.82s WALL (     200 calls)
     g_psi        :      1.33s CPU      1.29s WALL (     140 calls)
     cdiaghg      :      4.61s CPU      4.60s WALL (     192 calls)

     Called by h_psi:
     h_psi:pot    :    633.23s CPU    645.30s WALL (     200 calls)
     h_psi:calbec :     36.52s CPU     36.71s WALL (     200 calls)
     vloc_psi     :    560.08s CPU    571.95s WALL (     200 calls)
     add_vuspsi   :     36.62s CPU     36.64s WALL (     200 calls)

     General routines
     calbec       :     53.86s CPU     54.07s WALL (     276 calls)
     fft          :      4.64s CPU      4.90s WALL (     209 calls)
     fftw         :    565.35s CPU    579.20s WALL (   48926 calls)

     Parallel routines
     fft_scatt_xy :     95.36s CPU     95.63s WALL (   49135 calls)
     fft_scatt_yz :    104.99s CPU    112.49s WALL (   49135 calls)

     PWSCF        : 16m32.11s CPU    16m55.99s WALL


   This run was terminated on:   9:35:25  25Oct2021            

=------------------------------------------------------------------------------=
   JOB DONE.
=------------------------------------------------------------------------------=
Note: The following floating-point exceptions are signalling: IEEE_UNDERFLOW_FLAG IEEE_DENORMAL
