
     Program PWSCF v.6.2 (svn rev. 13949:13950) starts on 24Oct2021 at 14:10:26 

     This program is part of the open-source Quantum ESPRESSO suite
     for quantum simulation of materials; please cite
         "P. Giannozzi et al., J. Phys.:Condens. Matter 21 395502 (2009);
         "P. Giannozzi et al., J. Phys.:Condens. Matter 29 465901 (2017);
          URL http://www.quantum-espresso.org", 
     in publications or presentations arising from this work. More details at
     http://www.quantum-espresso.org/quote

     Parallel version (MPI), running on     4 processors

     MPI processes distributed on     1 nodes
     R & G space division:  proc/nbgrp/npool/nimage =       4
     Reading input from headeradd_supercell-00002.in

     Current dimensions of program PWSCF are:
     Max number of different atomic species (ntypx) = 10
     Max number of k-points (npk) =  40000
     Max angular momentum in pseudopotentials (lmaxx) =  3
     Message from routine iosys:
     minimal I/O required, wf_collect reset to FALSE
               file Si.pbe-n-kjpaw_psl.0.1.UPF: wavefunction(s)  3S renormalized

     Subspace diagonalization in iterative solution of the eigenvalue problem:
     a serial algorithm will be used


     Parallelization info
     --------------------
     sticks:   dense  smooth     PW     G-vecs:    dense   smooth      PW
     Min        2372    2372    612               174341   174341   22844
     Max        2374    2374    613               174344   174344   22847
     Sum        9493    9493   2449               697371   697371   91383



     bravais-lattice index     =            0
     lattice parameter (alat)  =      20.6591  a.u.
     unit-cell volume          =    8817.2783 (a.u.)^3
     number of atoms/cell      =           64
     number of atomic types    =            1
     number of electrons       =       256.00
     number of Kohn-Sham states=          128
     kinetic-energy cutoff     =      70.0000  Ry
     charge density cutoff     =     280.0000  Ry
     convergence threshold     =      1.0E-09
     mixing beta               =       0.7000
     number of iterations used =            8  plain     mixing
     Exchange-correlation      =  SLA  PW   PBX  PBC ( 1  4  3  4 0 0)

     celldm(1)=  20.659106  celldm(2)=   0.000000  celldm(3)=   0.000000
     celldm(4)=   0.000000  celldm(5)=   0.000000  celldm(6)=   0.000000

     crystal axes: (cart. coord. in units of alat)
               a(1) = (   1.000000   0.000000   0.000000 )  
               a(2) = (   0.000000   1.000000   0.000000 )  
               a(3) = (   0.000000   0.000000   1.000000 )  

     reciprocal axes: (cart. coord. in units 2 pi/alat)
               b(1) = (  1.000000  0.000000  0.000000 )  
               b(2) = (  0.000000  1.000000  0.000000 )  
               b(3) = (  0.000000  0.000000  1.000000 )  


     PseudoPot. # 1 for Si read from file:
     /home/uezono/pseudo/Si.pbe-n-kjpaw_psl.0.1.UPF
     MD5 check sum: 0810ef13ebffcf5dbabd57b297315270
     Pseudo is Projector augmented-wave + core cor, Zval =  4.0
     Generated using "atomic" code by A. Dal Corso  v.5.0.2 svn rev. 9415
     Shape of augmentation charge: PSQ
     Using radial grid of 1141 points,  4 beta functions with: 
                l(1) =   0
                l(2) =   0
                l(3) =   1
                l(4) =   1
     Q(r) pseudized with 0 coefficients 


     atomic species   valence    mass     pseudopotential
        Si             4.00    28.08550     Si( 1.00)

     No symmetry found



   Cartesian axes

     site n.     atom                  positions (alat units)
         1           Si  tau(   1) = (   0.4424579   0.4395536   0.4375000  )
         2           Si  tau(   2) = (   0.9375000   0.4375000   0.4375000  )
         3           Si  tau(   3) = (   0.4375000   0.9375000   0.4375000  )
         4           Si  tau(   4) = (   0.9375000   0.9375000   0.4375000  )
         5           Si  tau(   5) = (   0.4375000   0.4375000   0.9375000  )
         6           Si  tau(   6) = (   0.9375000   0.4375000   0.9375000  )
         7           Si  tau(   7) = (   0.4375000   0.9375000   0.9375000  )
         8           Si  tau(   8) = (   0.9375000   0.9375000   0.9375000  )
         9           Si  tau(   9) = (   0.4375000   0.1875000   0.1875000  )
        10           Si  tau(  10) = (   0.9375000   0.1875000   0.1875000  )
        11           Si  tau(  11) = (   0.4375000   0.6875000   0.1875000  )
        12           Si  tau(  12) = (   0.9375000   0.6875000   0.1875000  )
        13           Si  tau(  13) = (   0.4375000   0.1875000   0.6875000  )
        14           Si  tau(  14) = (   0.9375000   0.1875000   0.6875000  )
        15           Si  tau(  15) = (   0.4375000   0.6875000   0.6875000  )
        16           Si  tau(  16) = (   0.9375000   0.6875000   0.6875000  )
        17           Si  tau(  17) = (   0.1875000   0.4375000   0.1875000  )
        18           Si  tau(  18) = (   0.6875000   0.4375000   0.1875000  )
        19           Si  tau(  19) = (   0.1875000   0.9375000   0.1875000  )
        20           Si  tau(  20) = (   0.6875000   0.9375000   0.1875000  )
        21           Si  tau(  21) = (   0.1875000   0.4375000   0.6875000  )
        22           Si  tau(  22) = (   0.6875000   0.4375000   0.6875000  )
        23           Si  tau(  23) = (   0.1875000   0.9375000   0.6875000  )
        24           Si  tau(  24) = (   0.6875000   0.9375000   0.6875000  )
        25           Si  tau(  25) = (   0.1875000   0.1875000   0.4375000  )
        26           Si  tau(  26) = (   0.6875000   0.1875000   0.4375000  )
        27           Si  tau(  27) = (   0.1875000   0.6875000   0.4375000  )
        28           Si  tau(  28) = (   0.6875000   0.6875000   0.4375000  )
        29           Si  tau(  29) = (   0.1875000   0.1875000   0.9375000  )
        30           Si  tau(  30) = (   0.6875000   0.1875000   0.9375000  )
        31           Si  tau(  31) = (   0.1875000   0.6875000   0.9375000  )
        32           Si  tau(  32) = (   0.6875000   0.6875000   0.9375000  )
        33           Si  tau(  33) = (   0.0625000   0.0625000   0.0625000  )
        34           Si  tau(  34) = (   0.5625000   0.0625000   0.0625000  )
        35           Si  tau(  35) = (   0.0625000   0.5625000   0.0625000  )
        36           Si  tau(  36) = (   0.5625000   0.5625000   0.0625000  )
        37           Si  tau(  37) = (   0.0625000   0.0625000   0.5625000  )
        38           Si  tau(  38) = (   0.5625000   0.0625000   0.5625000  )
        39           Si  tau(  39) = (   0.0625000   0.5625000   0.5625000  )
        40           Si  tau(  40) = (   0.5625000   0.5625000   0.5625000  )
        41           Si  tau(  41) = (   0.0625000   0.3125000   0.3125000  )
        42           Si  tau(  42) = (   0.5625000   0.3125000   0.3125000  )
        43           Si  tau(  43) = (   0.0625000   0.8125000   0.3125000  )
        44           Si  tau(  44) = (   0.5625000   0.8125000   0.3125000  )
        45           Si  tau(  45) = (   0.0625000   0.3125000   0.8125000  )
        46           Si  tau(  46) = (   0.5625000   0.3125000   0.8125000  )
        47           Si  tau(  47) = (   0.0625000   0.8125000   0.8125000  )
        48           Si  tau(  48) = (   0.5625000   0.8125000   0.8125000  )
        49           Si  tau(  49) = (   0.3125000   0.0625000   0.3125000  )
        50           Si  tau(  50) = (   0.8125000   0.0625000   0.3125000  )
        51           Si  tau(  51) = (   0.3125000   0.5625000   0.3125000  )
        52           Si  tau(  52) = (   0.8125000   0.5625000   0.3125000  )
        53           Si  tau(  53) = (   0.3125000   0.0625000   0.8125000  )
        54           Si  tau(  54) = (   0.8125000   0.0625000   0.8125000  )
        55           Si  tau(  55) = (   0.3125000   0.5625000   0.8125000  )
        56           Si  tau(  56) = (   0.8125000   0.5625000   0.8125000  )
        57           Si  tau(  57) = (   0.3125000   0.3125000   0.0625000  )
        58           Si  tau(  58) = (   0.8125000   0.3125000   0.0625000  )
        59           Si  tau(  59) = (   0.3125000   0.8125000   0.0625000  )
        60           Si  tau(  60) = (   0.8125000   0.8125000   0.0625000  )
        61           Si  tau(  61) = (   0.3125000   0.3125000   0.5625000  )
        62           Si  tau(  62) = (   0.8125000   0.3125000   0.5625000  )
        63           Si  tau(  63) = (   0.3125000   0.8125000   0.5625000  )
        64           Si  tau(  64) = (   0.8125000   0.8125000   0.5625000  )

     number of k points=     4
                       cart. coord. in units 2pi/alat
        k(    1) = (   0.2500000   0.2500000   0.2500000), wk =   0.5000000
        k(    2) = (  -0.2500000  -0.2500000   0.2500000), wk =   0.5000000
        k(    3) = (  -0.2500000   0.2500000  -0.2500000), wk =   0.5000000
        k(    4) = (   0.2500000  -0.2500000  -0.2500000), wk =   0.5000000

     Dense  grid:   697371 G-vectors     FFT dimensions: ( 120, 120, 120)

     Estimated max dynamical RAM per process >       1.08 GB

     Estimated total dynamical RAM >       4.33 GB

     Initial potential from superposition of free atoms

     starting charge  255.96421, renormalised to  256.00000
     Starting wfc are  256 randomized atomic wfcs
     Checking if some PAW data can be deallocated... 

     total cpu time spent up to now is       46.3 secs

     Self-consistent Calculation

     iteration #  1     ecut=    70.00 Ry     beta= 0.70
     Davidson diagonalization with overlap
     ethr =  1.00E-02,  avg # of iterations =  2.0

     Threshold (ethr) on eigenvalues was too large:
     Diagonalizing with lowered threshold

     Davidson diagonalization with overlap
     ethr =  6.98E-04,  avg # of iterations =  1.0

     total cpu time spent up to now is      173.6 secs

     total energy              =   -2990.46175258 Ry
     Harris-Foulkes estimate   =   -2990.87985064 Ry
     estimated scf accuracy    <       1.76676689 Ry

     iteration #  2     ecut=    70.00 Ry     beta= 0.70
     Davidson diagonalization with overlap
     ethr =  6.90E-04,  avg # of iterations =  1.0

     total cpu time spent up to now is      227.8 secs

     total energy              =   -2990.52560444 Ry
     Harris-Foulkes estimate   =   -2990.52992315 Ry
     estimated scf accuracy    <       0.07825456 Ry

     iteration #  3     ecut=    70.00 Ry     beta= 0.70
     Davidson diagonalization with overlap
     ethr =  3.06E-05,  avg # of iterations =  2.2

     total cpu time spent up to now is      295.2 secs

     total energy              =   -2990.53427534 Ry
     Harris-Foulkes estimate   =   -2990.53497481 Ry
     estimated scf accuracy    <       0.00182451 Ry

     iteration #  4     ecut=    70.00 Ry     beta= 0.70
     Davidson diagonalization with overlap
     ethr =  7.13E-07,  avg # of iterations =  4.0

     total cpu time spent up to now is      382.4 secs

     total energy              =   -2990.53478758 Ry
     Harris-Foulkes estimate   =   -2990.53565811 Ry
     estimated scf accuracy    <       0.00248061 Ry

     iteration #  5     ecut=    70.00 Ry     beta= 0.70
     Davidson diagonalization with overlap
     ethr =  7.13E-07,  avg # of iterations =  3.0

     total cpu time spent up to now is      451.7 secs

     total energy              =   -2990.53520422 Ry
     Harris-Foulkes estimate   =   -2990.53528642 Ry
     estimated scf accuracy    <       0.00023939 Ry

     iteration #  6     ecut=    70.00 Ry     beta= 0.70
     Davidson diagonalization with overlap
     ethr =  9.35E-08,  avg # of iterations =  3.0

     total cpu time spent up to now is      524.4 secs

     total energy              =   -2990.53524206 Ry
     Harris-Foulkes estimate   =   -2990.53526517 Ry
     estimated scf accuracy    <       0.00006416 Ry

     iteration #  7     ecut=    70.00 Ry     beta= 0.70
     Davidson diagonalization with overlap
     ethr =  2.51E-08,  avg # of iterations =  2.0

     total cpu time spent up to now is      594.6 secs

     total energy              =   -2990.53525320 Ry
     Harris-Foulkes estimate   =   -2990.53525394 Ry
     estimated scf accuracy    <       0.00000149 Ry

     iteration #  8     ecut=    70.00 Ry     beta= 0.70
     Davidson diagonalization with overlap
     ethr =  5.80E-10,  avg # of iterations =  3.0

     total cpu time spent up to now is      689.0 secs

     total energy              =   -2990.53525420 Ry
     Harris-Foulkes estimate   =   -2990.53525447 Ry
     estimated scf accuracy    <       0.00000046 Ry

     iteration #  9     ecut=    70.00 Ry     beta= 0.70
     Davidson diagonalization with overlap
     ethr =  1.78E-10,  avg # of iterations =  3.0

     total cpu time spent up to now is      751.6 secs

     total energy              =   -2990.53525416 Ry
     Harris-Foulkes estimate   =   -2990.53525431 Ry
     estimated scf accuracy    <       0.00000023 Ry

     iteration # 10     ecut=    70.00 Ry     beta= 0.70
     Davidson diagonalization with overlap
     ethr =  9.16E-11,  avg # of iterations =  2.0

     total cpu time spent up to now is      811.0 secs

     total energy              =   -2990.53525412 Ry
     Harris-Foulkes estimate   =   -2990.53525420 Ry
     estimated scf accuracy    <       0.00000003 Ry

     iteration # 11     ecut=    70.00 Ry     beta= 0.70
     Davidson diagonalization with overlap
     ethr =  1.13E-11,  avg # of iterations =  3.0

     total cpu time spent up to now is      875.6 secs

     total energy              =   -2990.53525413 Ry
     Harris-Foulkes estimate   =   -2990.53525413 Ry
     estimated scf accuracy    <          4.0E-09 Ry

     iteration # 12     ecut=    70.00 Ry     beta= 0.70
     Davidson diagonalization with overlap
     ethr =  1.54E-12,  avg # of iterations =  3.0

     total cpu time spent up to now is      952.3 secs

     total energy              =   -2990.53525413 Ry
     Harris-Foulkes estimate   =   -2990.53525414 Ry
     estimated scf accuracy    <          3.2E-09 Ry

     iteration # 13     ecut=    70.00 Ry     beta= 0.70
     Davidson diagonalization with overlap
     ethr =  1.26E-12,  avg # of iterations =  3.0

     total cpu time spent up to now is     1014.7 secs

     total energy              =   -2990.53525413 Ry
     Harris-Foulkes estimate   =   -2990.53525413 Ry
     estimated scf accuracy    <          1.1E-09 Ry

     iteration # 14     ecut=    70.00 Ry     beta= 0.70
     Davidson diagonalization with overlap
     ethr =  4.28E-13,  avg # of iterations =  2.0

     total cpu time spent up to now is     1073.8 secs

     End of self-consistent calculation

          k = 0.2500 0.2500 0.2500 ( 87251 PWs)   bands (ev):

    -5.6251  -5.1009  -5.0955  -5.0934  -4.6010  -4.5958  -4.5937  -4.1623
    -4.0669  -4.0624  -4.0595  -3.6601  -3.6475  -3.6473  -3.6459  -3.6453
    -3.6405  -3.4613  -3.4541  -3.4516  -2.9603  -2.9571  -2.9516  -2.5956
    -2.5882  -2.5855  -2.4323  -2.4217  -2.4210  -2.4196  -2.4190  -2.4132
    -0.8884  -0.8787  -0.8782  -0.8770  -0.8756  -0.8696  -0.7846  -0.7786
    -0.7753  -0.6650  -0.6611  -0.6538  -0.5928  -0.5761  -0.5741   0.1218
     0.2039   0.2100   0.2105   0.2117   0.2157   0.2239   1.0731   1.0855
     1.0885   1.4136   1.4192   1.4222   2.0228   2.0270   2.0282   2.0295
     2.0322   2.0350   2.0861   2.0896   2.0934   2.6340   2.6389   2.6400
     2.7385   2.7407   2.7428   2.7434   2.7502   2.7517   2.7951   2.7995
     2.8039   3.0991   3.1051   3.1080   3.1086   3.1101   3.1133   3.3713
     3.3725   3.3747   3.3835   3.3888   3.3918   3.7245   3.7336   3.7358
     3.7485   3.7548   3.7570   3.8383   3.8401   3.8443   4.0968   4.1090
     4.1136   4.1145   4.1153   4.1165   4.1527   4.1541   4.1592   4.4084
     4.4714   4.4724   4.4775   4.7140   4.7152   4.7214   4.7644   4.7774
     4.7784   4.9340   4.9414   5.2435   5.2443   5.2531   5.7226   5.7314

          k =-0.2500-0.2500 0.2500 ( 87251 PWs)   bands (ev):

    -5.6252  -5.0997  -5.0970  -5.0923  -4.6003  -4.5975  -4.5930  -4.1648
    -4.0672  -4.0642  -4.0600  -3.6546  -3.6487  -3.6481  -3.6467  -3.6464
    -3.6352  -3.4584  -3.4556  -3.4480  -2.9659  -2.9598  -2.9567  -2.5931
    -2.5901  -2.5835  -2.4285  -2.4226  -2.4220  -2.4207  -2.4200  -2.4085
    -0.8894  -0.8811  -0.8792  -0.8780  -0.8775  -0.8694  -0.7859  -0.7824
    -0.7763  -0.6693  -0.6636  -0.6597  -0.5783  -0.5763  -0.5576   0.1307
     0.1984   0.2060   0.2096   0.2109   0.2113   0.2177   1.0819   1.0853
     1.0975   1.4143   1.4176   1.4228   2.0225   2.0258   2.0289   2.0302
     2.0314   2.0343   2.0832   2.0864   2.0915   2.6400   2.6412   2.6458
     2.7334   2.7348   2.7431   2.7437   2.7458   2.7476   2.7908   2.7937
     2.7976   3.1023   3.1052   3.1065   3.1070   3.1100   3.1155   3.3665
     3.3714   3.3719   3.3818   3.3846   3.3887   3.7333   3.7356   3.7398
     3.7559   3.7581   3.7685   3.8345   3.8388   3.8410   4.1121   4.1132
     4.1136   4.1145   4.1189   4.1321   4.1481   4.1527   4.1564   4.4182
     4.4642   4.4700   4.4704   4.7080   4.7136   4.7147   4.7789   4.7798
     4.7964   4.9310   4.9385   5.2347   5.2424   5.2438   5.7171   5.7252

          k =-0.2500 0.2500-0.2500 ( 87251 PWs)   bands (ev):

    -5.6252  -5.1011  -5.0971  -5.0910  -4.6015  -4.5976  -4.5915  -4.1639
    -4.0686  -4.0643  -4.0583  -3.6576  -3.6500  -3.6475  -3.6470  -3.6464
    -3.6330  -3.4592  -3.4562  -3.4477  -2.9654  -2.9598  -2.9538  -2.5945
    -2.5907  -2.5825  -2.4305  -2.4240  -2.4214  -2.4211  -2.4202  -2.4062
    -0.8913  -0.8824  -0.8786  -0.8782  -0.8776  -0.8652  -0.7866  -0.7825
    -0.7733  -0.6692  -0.6635  -0.6555  -0.5781  -0.5752  -0.5682   0.1281
     0.1976   0.2050   0.2101   0.2111   0.2114   0.2249   1.0817   1.0852
     1.0927   1.4140   1.4169   1.4239   2.0228   2.0251   2.0288   2.0296
     2.0321   2.0349   2.0854   2.0863   2.0924   2.6381   2.6401   2.6445
     2.7337   2.7367   2.7429   2.7435   2.7471   2.7488   2.7912   2.7946
     2.8018   3.0997   3.1045   3.1069   3.1077   3.1097   3.1172   3.3666
     3.3717   3.3736   3.3821   3.3847   3.3913   3.7320   3.7343   3.7403
     3.7545   3.7567   3.7629   3.8342   3.8393   3.8436   4.1092   4.1116
     4.1138   4.1142   4.1186   4.1248   4.1480   4.1532   4.1597   4.4148
     4.4653   4.4704   4.4742   4.7081   4.7142   4.7177   4.7781   4.7793
     4.7871   4.9303   4.9413   5.2353   5.2430   5.2487   5.7169   5.7290

          k = 0.2500-0.2500-0.2500 ( 87251 PWs)   bands (ev):

    -5.6251  -5.1023  -5.0953  -5.0920  -4.6024  -4.5956  -4.5924  -4.1628
    -4.0693  -4.0623  -4.0586  -3.6623  -3.6475  -3.6469  -3.6464  -3.6439
    -3.6373  -3.4614  -3.4534  -3.4504  -2.9638  -2.9572  -2.9524  -2.5970
    -2.5876  -2.5842  -2.4346  -2.4216  -2.4206  -2.4203  -2.4174  -2.4107
    -0.8945  -0.8785  -0.8780  -0.8776  -0.8740  -0.8677  -0.7872  -0.7783
    -0.7742  -0.6681  -0.6612  -0.6537  -0.5834  -0.5769  -0.5743   0.1244
     0.1967   0.2100   0.2103   0.2113   0.2165   0.2244   1.0779   1.0857
     1.0888   1.4126   1.4197   1.4226   2.0222   2.0258   2.0290   2.0296
     2.0328   2.0345   2.0856   2.0904   2.0914   2.6353   2.6400   2.6416
     2.7364   2.7387   2.7430   2.7436   2.7480   2.7508   2.7921   2.7989
     2.8034   3.0976   3.1054   3.1074   3.1082   3.1105   3.1157   3.3689
     3.3721   3.3748   3.3812   3.3886   3.3917   3.7285   3.7350   3.7373
     3.7495   3.7564   3.7586   3.8362   3.8396   3.8448   4.1022   4.1095
     4.1142   4.1147   4.1170   4.1187   4.1507   4.1536   4.1601   4.4107
     4.4692   4.4710   4.4766   4.7105   4.7145   4.7209   4.7728   4.7781
     4.7792   4.9317   4.9424   5.2393   5.2436   5.2525   5.7192   5.7316

     highest occupied level (ev):     5.7316

!    total energy              =   -2990.53525414 Ry
     Harris-Foulkes estimate   =   -2990.53525413 Ry
     estimated scf accuracy    <          1.4E-10 Ry

     total all-electron energy =    -37124.670807 Ry

     The total energy is the sum of the following terms:

     one-electron contribution =     178.60115510 Ry
     hartree contribution      =      35.70311677 Ry
     xc contribution           =    -391.44061430 Ry
     ewald contribution        =    -534.00379589 Ry
     one-center paw contrib.   =   -2279.39511582 Ry

     convergence has been achieved in  14 iterations

     Forces acting on atoms (cartesian axes, Ry/au):

     atom    1 type  1   force =    -0.02705071   -0.01128416   -0.00146930
     atom    2 type  1   force =     0.00003753    0.00003853    0.00000121
     atom    3 type  1   force =     0.00009294    0.00001579    0.00000162
     atom    4 type  1   force =    -0.00001261   -0.00000494    0.00000179
     atom    5 type  1   force =     0.00009271    0.00003884    0.00000071
     atom    6 type  1   force =    -0.00001238   -0.00033536    0.00000004
     atom    7 type  1   force =    -0.00081068   -0.00000526   -0.00000035
     atom    8 type  1   force =     0.00004038    0.00001714    0.00000031
     atom    9 type  1   force =    -0.00098291    0.00036533    0.00035575
     atom   10 type  1   force =    -0.00000933    0.00004557   -0.00003873
     atom   11 type  1   force =    -0.00097079    0.00034716   -0.00035061
     atom   12 type  1   force =    -0.00000702    0.00004705    0.00003701
     atom   13 type  1   force =    -0.00081312   -0.00002337    0.00001896
     atom   14 type  1   force =     0.00000777    0.00001402    0.00007101
     atom   15 type  1   force =    -0.00082404   -0.00002477   -0.00003609
     atom   16 type  1   force =     0.00000418    0.00001321   -0.00006981
     atom   17 type  1   force =     0.00047373   -0.00055812    0.00046213
     atom   18 type  1   force =     0.00048286   -0.00056710   -0.00048147
     atom   19 type  1   force =     0.00007761   -0.00001651   -0.00012518
     atom   20 type  1   force =     0.00007933   -0.00001655    0.00012322
     atom   21 type  1   force =     0.00030845   -0.00018556   -0.00031042
     atom   22 type  1   force =     0.00033357   -0.00017550    0.00031770
     atom   23 type  1   force =     0.00006561    0.00001671    0.00013848
     atom   24 type  1   force =     0.00006416    0.00001538   -0.00013688
     atom   25 type  1   force =     0.00054229    0.00054007   -0.00026156
     atom   26 type  1   force =     0.00023807   -0.00022714   -0.00011932
     atom   27 type  1   force =     0.00023555   -0.00022716    0.00010549
     atom   28 type  1   force =     0.00058238    0.00057791    0.00027614
     atom   29 type  1   force =     0.00001727   -0.00010119   -0.00002338
     atom   30 type  1   force =     0.00012715    0.00015961   -0.00000945
     atom   31 type  1   force =     0.00012504    0.00016235    0.00000906
     atom   32 type  1   force =     0.00001743   -0.00010042    0.00002330
     atom   33 type  1   force =    -0.00001544    0.00003894    0.00007471
     atom   34 type  1   force =     0.00045707    0.00006663    0.00006507
     atom   35 type  1   force =     0.00006201    0.00022432    0.00005999
     atom   36 type  1   force =    -0.00006662    0.00004507    0.00009255
     atom   37 type  1   force =     0.00005862    0.00005819    0.00006271
     atom   38 type  1   force =    -0.00007765    0.00005764    0.00011115
     atom   39 type  1   force =     0.00000482    0.00002342    0.00010101
     atom   40 type  1   force =     0.00894153    0.00780938    0.00705198
     atom   41 type  1   force =    -0.00004916   -0.00010608   -0.00002913
     atom   42 type  1   force =     0.00471998   -0.00176258   -0.00258631
     atom   43 type  1   force =     0.00002579   -0.00002398   -0.00002412
     atom   44 type  1   force =    -0.00013279   -0.00007626   -0.00005773
     atom   45 type  1   force =     0.00002272    0.00013482   -0.00002280
     atom   46 type  1   force =    -0.00014419   -0.00012332   -0.00004245
     atom   47 type  1   force =    -0.00005985   -0.00006851   -0.00003240
     atom   48 type  1   force =     0.00041679   -0.00002839   -0.00003065
     atom   49 type  1   force =    -0.00012592   -0.00007161    0.00006228
     atom   50 type  1   force =     0.00002802   -0.00002563    0.00003142
     atom   51 type  1   force =     0.00481011   -0.00160115    0.00258133
     atom   52 type  1   force =    -0.00004970   -0.00010787    0.00002842
     atom   53 type  1   force =     0.00040872   -0.00002867    0.00002765
     atom   54 type  1   force =    -0.00005901   -0.00006808    0.00002982
     atom   55 type  1   force =    -0.00013285   -0.00013406    0.00003337
     atom   56 type  1   force =     0.00002877    0.00012935    0.00002571
     atom   57 type  1   force =    -0.00006661    0.00004465   -0.00009096
     atom   58 type  1   force =     0.00006779    0.00022944   -0.00006676
     atom   59 type  1   force =     0.00044838    0.00006615   -0.00006669
     atom   60 type  1   force =    -0.00001680    0.00003594   -0.00007465
     atom   61 type  1   force =     0.00794388    0.00655737   -0.00553845
     atom   62 type  1   force =     0.00000425    0.00002197   -0.00010078
     atom   63 type  1   force =    -0.00007352    0.00005356   -0.00011541
     atom   64 type  1   force =     0.00006848    0.00006777   -0.00007125

     Total force =     0.035535     Total SCF correction =     0.000022


     Computing stress (Cartesian axis) and pressure

          total   stress  (Ry/bohr**3)                   (kbar)     P=    0.13
   0.00000065   0.00000022   0.00000169          0.10      0.03      0.25
   0.00000022   0.00000100   0.00000408          0.03      0.15      0.60
   0.00000169   0.00000408   0.00000108          0.25      0.60      0.16


     init_run     :     45.16s CPU     46.21s WALL (       1 calls)
     electrons    :   1004.87s CPU   1027.45s WALL (       1 calls)
     forces       :     11.66s CPU     11.90s WALL (       1 calls)
     stress       :     56.83s CPU     57.10s WALL (       1 calls)

     Called by init_run:
     wfcinit      :     41.98s CPU     42.90s WALL (       1 calls)
     potinit      :      1.11s CPU      1.14s WALL (       1 calls)

     Called by electrons:
     c_bands      :    835.90s CPU    854.83s WALL (      15 calls)
     sum_band     :    150.32s CPU    152.90s WALL (      15 calls)
     v_of_rho     :      6.08s CPU      6.24s WALL (      15 calls)
     newd         :      3.26s CPU      4.23s WALL (      15 calls)
     PAW_pot      :      8.93s CPU      8.93s WALL (      15 calls)
     mix_rho      :      1.42s CPU      1.46s WALL (      15 calls)

     Called by c_bands:
     init_us_2    :      8.76s CPU      8.81s WALL (     132 calls)
     cegterg      :    818.68s CPU    837.54s WALL (      60 calls)

     Called by sum_band:
     sum_band:bec :      0.02s CPU      0.02s WALL (      60 calls)
     addusdens    :      4.14s CPU      5.00s WALL (      15 calls)

     Called by *egterg:
     h_psi        :    729.67s CPU    741.25s WALL (     213 calls)
     s_psi        :     41.28s CPU     41.31s WALL (     213 calls)
     g_psi        :      1.35s CPU      1.34s WALL (     149 calls)
     cdiaghg      :      5.26s CPU      5.25s WALL (     205 calls)

     Called by h_psi:
     h_psi:pot    :    725.32s CPU    736.80s WALL (     213 calls)
     h_psi:calbec :     41.96s CPU     42.01s WALL (     213 calls)
     vloc_psi     :    641.93s CPU    653.33s WALL (     213 calls)
     add_vuspsi   :     41.42s CPU     41.46s WALL (     213 calls)

     General routines
     calbec       :     60.88s CPU     60.93s WALL (     293 calls)
     fft          :      5.14s CPU      5.44s WALL (     222 calls)
     fftw         :    648.61s CPU    661.32s WALL (   52266 calls)

     Parallel routines
     fft_scatt_xy :    108.28s CPU    108.10s WALL (   52488 calls)
     fft_scatt_yz :    123.02s CPU    130.78s WALL (   52488 calls)

     PWSCF        : 18m38.63s CPU    19m 2.78s WALL


   This run was terminated on:  14:29:28  24Oct2021            

=------------------------------------------------------------------------------=
   JOB DONE.
=------------------------------------------------------------------------------=
Note: The following floating-point exceptions are signalling: IEEE_UNDERFLOW_FLAG IEEE_DENORMAL
