
     Program PWSCF v.6.2 (svn rev. 13949:13950) starts on 24Oct2021 at 14:46:19 

     This program is part of the open-source Quantum ESPRESSO suite
     for quantum simulation of materials; please cite
         "P. Giannozzi et al., J. Phys.:Condens. Matter 21 395502 (2009);
         "P. Giannozzi et al., J. Phys.:Condens. Matter 29 465901 (2017);
          URL http://www.quantum-espresso.org", 
     in publications or presentations arising from this work. More details at
     http://www.quantum-espresso.org/quote

     Parallel version (MPI), running on     4 processors

     MPI processes distributed on     1 nodes
     R & G space division:  proc/nbgrp/npool/nimage =       4
     Reading input from headeradd_supercell-00004.in

     Current dimensions of program PWSCF are:
     Max number of different atomic species (ntypx) = 10
     Max number of k-points (npk) =  40000
     Max angular momentum in pseudopotentials (lmaxx) =  3
     Message from routine iosys:
     minimal I/O required, wf_collect reset to FALSE
               file Si.pbe-n-kjpaw_psl.0.1.UPF: wavefunction(s)  3S renormalized

     Subspace diagonalization in iterative solution of the eigenvalue problem:
     a serial algorithm will be used


     Parallelization info
     --------------------
     sticks:   dense  smooth     PW     G-vecs:    dense   smooth      PW
     Min        2372    2372    612               174341   174341   22844
     Max        2374    2374    613               174344   174344   22847
     Sum        9493    9493   2449               697371   697371   91383



     bravais-lattice index     =            0
     lattice parameter (alat)  =      20.6591  a.u.
     unit-cell volume          =    8817.2783 (a.u.)^3
     number of atoms/cell      =           64
     number of atomic types    =            1
     number of electrons       =       256.00
     number of Kohn-Sham states=          128
     kinetic-energy cutoff     =      70.0000  Ry
     charge density cutoff     =     280.0000  Ry
     convergence threshold     =      1.0E-09
     mixing beta               =       0.7000
     number of iterations used =            8  plain     mixing
     Exchange-correlation      =  SLA  PW   PBX  PBC ( 1  4  3  4 0 0)

     celldm(1)=  20.659106  celldm(2)=   0.000000  celldm(3)=   0.000000
     celldm(4)=   0.000000  celldm(5)=   0.000000  celldm(6)=   0.000000

     crystal axes: (cart. coord. in units of alat)
               a(1) = (   1.000000   0.000000   0.000000 )  
               a(2) = (   0.000000   1.000000   0.000000 )  
               a(3) = (   0.000000   0.000000   1.000000 )  

     reciprocal axes: (cart. coord. in units 2 pi/alat)
               b(1) = (  1.000000  0.000000  0.000000 )  
               b(2) = (  0.000000  1.000000  0.000000 )  
               b(3) = (  0.000000  0.000000  1.000000 )  


     PseudoPot. # 1 for Si read from file:
     /home/uezono/pseudo/Si.pbe-n-kjpaw_psl.0.1.UPF
     MD5 check sum: 0810ef13ebffcf5dbabd57b297315270
     Pseudo is Projector augmented-wave + core cor, Zval =  4.0
     Generated using "atomic" code by A. Dal Corso  v.5.0.2 svn rev. 9415
     Shape of augmentation charge: PSQ
     Using radial grid of 1141 points,  4 beta functions with: 
                l(1) =   0
                l(2) =   0
                l(3) =   1
                l(4) =   1
     Q(r) pseudized with 0 coefficients 


     atomic species   valence    mass     pseudopotential
        Si             4.00    28.08550     Si( 1.00)

     No symmetry found



   Cartesian axes

     site n.     atom                  positions (alat units)
         1           Si  tau(   1) = (   0.4404043   0.4375000   0.4375000  )
         2           Si  tau(   2) = (   0.9395536   0.4395536   0.4375000  )
         3           Si  tau(   3) = (   0.4375000   0.9375000   0.4375000  )
         4           Si  tau(   4) = (   0.9375000   0.9375000   0.4375000  )
         5           Si  tau(   5) = (   0.4375000   0.4375000   0.9375000  )
         6           Si  tau(   6) = (   0.9375000   0.4375000   0.9375000  )
         7           Si  tau(   7) = (   0.4375000   0.9375000   0.9375000  )
         8           Si  tau(   8) = (   0.9375000   0.9375000   0.9375000  )
         9           Si  tau(   9) = (   0.4375000   0.1875000   0.1875000  )
        10           Si  tau(  10) = (   0.9375000   0.1875000   0.1875000  )
        11           Si  tau(  11) = (   0.4375000   0.6875000   0.1875000  )
        12           Si  tau(  12) = (   0.9375000   0.6875000   0.1875000  )
        13           Si  tau(  13) = (   0.4375000   0.1875000   0.6875000  )
        14           Si  tau(  14) = (   0.9375000   0.1875000   0.6875000  )
        15           Si  tau(  15) = (   0.4375000   0.6875000   0.6875000  )
        16           Si  tau(  16) = (   0.9375000   0.6875000   0.6875000  )
        17           Si  tau(  17) = (   0.1875000   0.4375000   0.1875000  )
        18           Si  tau(  18) = (   0.6875000   0.4375000   0.1875000  )
        19           Si  tau(  19) = (   0.1875000   0.9375000   0.1875000  )
        20           Si  tau(  20) = (   0.6875000   0.9375000   0.1875000  )
        21           Si  tau(  21) = (   0.1875000   0.4375000   0.6875000  )
        22           Si  tau(  22) = (   0.6875000   0.4375000   0.6875000  )
        23           Si  tau(  23) = (   0.1875000   0.9375000   0.6875000  )
        24           Si  tau(  24) = (   0.6875000   0.9375000   0.6875000  )
        25           Si  tau(  25) = (   0.1875000   0.1875000   0.4375000  )
        26           Si  tau(  26) = (   0.6875000   0.1875000   0.4375000  )
        27           Si  tau(  27) = (   0.1875000   0.6875000   0.4375000  )
        28           Si  tau(  28) = (   0.6875000   0.6875000   0.4375000  )
        29           Si  tau(  29) = (   0.1875000   0.1875000   0.9375000  )
        30           Si  tau(  30) = (   0.6875000   0.1875000   0.9375000  )
        31           Si  tau(  31) = (   0.1875000   0.6875000   0.9375000  )
        32           Si  tau(  32) = (   0.6875000   0.6875000   0.9375000  )
        33           Si  tau(  33) = (   0.0625000   0.0625000   0.0625000  )
        34           Si  tau(  34) = (   0.5625000   0.0625000   0.0625000  )
        35           Si  tau(  35) = (   0.0625000   0.5625000   0.0625000  )
        36           Si  tau(  36) = (   0.5625000   0.5625000   0.0625000  )
        37           Si  tau(  37) = (   0.0625000   0.0625000   0.5625000  )
        38           Si  tau(  38) = (   0.5625000   0.0625000   0.5625000  )
        39           Si  tau(  39) = (   0.0625000   0.5625000   0.5625000  )
        40           Si  tau(  40) = (   0.5625000   0.5625000   0.5625000  )
        41           Si  tau(  41) = (   0.0625000   0.3125000   0.3125000  )
        42           Si  tau(  42) = (   0.5625000   0.3125000   0.3125000  )
        43           Si  tau(  43) = (   0.0625000   0.8125000   0.3125000  )
        44           Si  tau(  44) = (   0.5625000   0.8125000   0.3125000  )
        45           Si  tau(  45) = (   0.0625000   0.3125000   0.8125000  )
        46           Si  tau(  46) = (   0.5625000   0.3125000   0.8125000  )
        47           Si  tau(  47) = (   0.0625000   0.8125000   0.8125000  )
        48           Si  tau(  48) = (   0.5625000   0.8125000   0.8125000  )
        49           Si  tau(  49) = (   0.3125000   0.0625000   0.3125000  )
        50           Si  tau(  50) = (   0.8125000   0.0625000   0.3125000  )
        51           Si  tau(  51) = (   0.3125000   0.5625000   0.3125000  )
        52           Si  tau(  52) = (   0.8125000   0.5625000   0.3125000  )
        53           Si  tau(  53) = (   0.3125000   0.0625000   0.8125000  )
        54           Si  tau(  54) = (   0.8125000   0.0625000   0.8125000  )
        55           Si  tau(  55) = (   0.3125000   0.5625000   0.8125000  )
        56           Si  tau(  56) = (   0.8125000   0.5625000   0.8125000  )
        57           Si  tau(  57) = (   0.3125000   0.3125000   0.0625000  )
        58           Si  tau(  58) = (   0.8125000   0.3125000   0.0625000  )
        59           Si  tau(  59) = (   0.3125000   0.8125000   0.0625000  )
        60           Si  tau(  60) = (   0.8125000   0.8125000   0.0625000  )
        61           Si  tau(  61) = (   0.3125000   0.3125000   0.5625000  )
        62           Si  tau(  62) = (   0.8125000   0.3125000   0.5625000  )
        63           Si  tau(  63) = (   0.3125000   0.8125000   0.5625000  )
        64           Si  tau(  64) = (   0.8125000   0.8125000   0.5625000  )

     number of k points=     4
                       cart. coord. in units 2pi/alat
        k(    1) = (   0.2500000   0.2500000   0.2500000), wk =   0.5000000
        k(    2) = (  -0.2500000  -0.2500000   0.2500000), wk =   0.5000000
        k(    3) = (  -0.2500000   0.2500000  -0.2500000), wk =   0.5000000
        k(    4) = (   0.2500000  -0.2500000  -0.2500000), wk =   0.5000000

     Dense  grid:   697371 G-vectors     FFT dimensions: ( 120, 120, 120)

     Estimated max dynamical RAM per process >       1.08 GB

     Estimated total dynamical RAM >       4.33 GB

     Initial potential from superposition of free atoms

     starting charge  255.96421, renormalised to  256.00000
     Starting wfc are  256 randomized atomic wfcs
     Checking if some PAW data can be deallocated... 

     total cpu time spent up to now is       41.1 secs

     Self-consistent Calculation

     iteration #  1     ecut=    70.00 Ry     beta= 0.70
     Davidson diagonalization with overlap
     ethr =  1.00E-02,  avg # of iterations =  2.0

     Threshold (ethr) on eigenvalues was too large:
     Diagonalizing with lowered threshold

     Davidson diagonalization with overlap
     ethr =  6.98E-04,  avg # of iterations =  1.0

     total cpu time spent up to now is      155.7 secs

     total energy              =   -2990.46248462 Ry
     Harris-Foulkes estimate   =   -2990.88043868 Ry
     estimated scf accuracy    <       1.76646093 Ry

     iteration #  2     ecut=    70.00 Ry     beta= 0.70
     Davidson diagonalization with overlap
     ethr =  6.90E-04,  avg # of iterations =  1.0

     total cpu time spent up to now is      204.5 secs

     total energy              =   -2990.52628194 Ry
     Harris-Foulkes estimate   =   -2990.53058719 Ry
     estimated scf accuracy    <       0.07827119 Ry

     iteration #  3     ecut=    70.00 Ry     beta= 0.70
     Davidson diagonalization with overlap
     ethr =  3.06E-05,  avg # of iterations =  2.2

     total cpu time spent up to now is      261.7 secs

     total energy              =   -2990.53497909 Ry
     Harris-Foulkes estimate   =   -2990.53564306 Ry
     estimated scf accuracy    <       0.00178238 Ry

     iteration #  4     ecut=    70.00 Ry     beta= 0.70
     Davidson diagonalization with overlap
     ethr =  6.96E-07,  avg # of iterations =  4.0

     total cpu time spent up to now is      344.4 secs

     total energy              =   -2990.53554780 Ry
     Harris-Foulkes estimate   =   -2990.53624879 Ry
     estimated scf accuracy    <       0.00204112 Ry

     iteration #  5     ecut=    70.00 Ry     beta= 0.70
     Davidson diagonalization with overlap
     ethr =  6.96E-07,  avg # of iterations =  3.0

     total cpu time spent up to now is      405.5 secs

     total energy              =   -2990.53588753 Ry
     Harris-Foulkes estimate   =   -2990.53595209 Ry
     estimated scf accuracy    <       0.00018742 Ry

     iteration #  6     ecut=    70.00 Ry     beta= 0.70
     Davidson diagonalization with overlap
     ethr =  7.32E-08,  avg # of iterations =  3.0

     total cpu time spent up to now is      470.3 secs

     total energy              =   -2990.53591681 Ry
     Harris-Foulkes estimate   =   -2990.53593809 Ry
     estimated scf accuracy    <       0.00005921 Ry

     iteration #  7     ecut=    70.00 Ry     beta= 0.70
     Davidson diagonalization with overlap
     ethr =  2.31E-08,  avg # of iterations =  2.0

     total cpu time spent up to now is      530.5 secs

     total energy              =   -2990.53592706 Ry
     Harris-Foulkes estimate   =   -2990.53592755 Ry
     estimated scf accuracy    <       0.00000091 Ry

     iteration #  8     ecut=    70.00 Ry     beta= 0.70
     Davidson diagonalization with overlap
     ethr =  3.57E-10,  avg # of iterations =  4.0

     total cpu time spent up to now is      620.0 secs

     total energy              =   -2990.53592789 Ry
     Harris-Foulkes estimate   =   -2990.53592817 Ry
     estimated scf accuracy    <       0.00000058 Ry

     iteration #  9     ecut=    70.00 Ry     beta= 0.70
     Davidson diagonalization with overlap
     ethr =  2.28E-10,  avg # of iterations =  2.2

     total cpu time spent up to now is      679.4 secs

     total energy              =   -2990.53592784 Ry
     Harris-Foulkes estimate   =   -2990.53592799 Ry
     estimated scf accuracy    <       0.00000016 Ry

     iteration # 10     ecut=    70.00 Ry     beta= 0.70
     Davidson diagonalization with overlap
     ethr =  6.23E-11,  avg # of iterations =  2.0

     total cpu time spent up to now is      739.2 secs

     total energy              =   -2990.53592781 Ry
     Harris-Foulkes estimate   =   -2990.53592787 Ry
     estimated scf accuracy    <       0.00000002 Ry

     iteration # 11     ecut=    70.00 Ry     beta= 0.70
     Davidson diagonalization with overlap
     ethr =  7.84E-12,  avg # of iterations =  3.0

     total cpu time spent up to now is      807.6 secs

     total energy              =   -2990.53592781 Ry
     Harris-Foulkes estimate   =   -2990.53592781 Ry
     estimated scf accuracy    <          4.4E-09 Ry

     iteration # 12     ecut=    70.00 Ry     beta= 0.70
     Davidson diagonalization with overlap
     ethr =  1.72E-12,  avg # of iterations =  3.0

     total cpu time spent up to now is      876.8 secs

     total energy              =   -2990.53592781 Ry
     Harris-Foulkes estimate   =   -2990.53592782 Ry
     estimated scf accuracy    <          1.4E-09 Ry

     iteration # 13     ecut=    70.00 Ry     beta= 0.70
     Davidson diagonalization with overlap
     ethr =  5.38E-13,  avg # of iterations =  3.0

     total cpu time spent up to now is      944.2 secs

     End of self-consistent calculation

          k = 0.2500 0.2500 0.2500 ( 87251 PWs)   bands (ev):

    -5.6249  -5.0995  -5.0957  -5.0942  -4.5998  -4.5958  -4.5945  -4.1620
    -4.0656  -4.0622  -4.0609  -3.6557  -3.6528  -3.6468  -3.6458  -3.6437
    -3.6412  -3.4613  -3.4541  -3.4514  -2.9586  -2.9560  -2.9541  -2.5955
    -2.5882  -2.5855  -2.4289  -2.4258  -2.4206  -2.4196  -2.4170  -2.4151
    -0.8868  -0.8805  -0.8777  -0.8752  -0.8737  -0.8725  -0.7844  -0.7785
    -0.7748  -0.6650  -0.6611  -0.6545  -0.5878  -0.5818  -0.5742   0.1218
     0.2039   0.2097   0.2113   0.2156   0.2165   0.2186   1.0749   1.0838
     1.0886   1.4148   1.4182   1.4221   2.0255   2.0269   2.0282   2.0288
     2.0324   2.0339   2.0879   2.0895   2.0914   2.6343   2.6390   2.6401
     2.7392   2.7412   2.7423   2.7459   2.7488   2.7511   2.7958   2.7989
     2.8026   3.1003   3.1057   3.1084   3.1086   3.1099   3.1113   3.3715
     3.3726   3.3748   3.3839   3.3885   3.3916   3.7258   3.7334   3.7359
     3.7478   3.7547   3.7570   3.8381   3.8414   3.8431   4.1021   4.1055
     4.1121   4.1142   4.1152   4.1164   4.1523   4.1558   4.1577   4.4083
     4.4715   4.4722   4.4774   4.7139   4.7171   4.7194   4.7671   4.7741
     4.7784   4.9339   4.9416   5.2432   5.2472   5.2500   5.7226   5.7311

          k =-0.2500-0.2500 0.2500 ( 87251 PWs)   bands (ev):

    -5.6251  -5.0983  -5.0969  -5.0933  -4.5989  -4.5976  -4.5940  -4.1646
    -4.0657  -4.0644  -4.0611  -3.6531  -3.6503  -3.6482  -3.6471  -3.6414
    -3.6387  -3.4582  -3.4555  -3.4479  -2.9630  -2.9610  -2.9583  -2.5931
    -2.5901  -2.5834  -2.4266  -2.4247  -2.4220  -2.4211  -2.4157  -2.4124
    -0.8844  -0.8827  -0.8817  -0.8784  -0.8759  -0.8702  -0.7856  -0.7823
    -0.7761  -0.6700  -0.6635  -0.6597  -0.5782  -0.5702  -0.5643   0.1308
     0.2031   0.2052   0.2058   0.2102   0.2117   0.2177   1.0820   1.0870
     1.0957   1.4145   1.4185   1.4218   2.0243   2.0259   2.0296   2.0302
     2.0312   2.0326   2.0850   2.0867   2.0889   2.6401   2.6412   2.6460
     2.7351   2.7376   2.7403   2.7441   2.7451   2.7471   2.7901   2.7939
     2.7970   3.1040   3.1053   3.1066   3.1068   3.1094   3.1147   3.3666
     3.3714   3.3721   3.3824   3.3848   3.3879   3.7336   3.7363   3.7397
     3.7559   3.7581   3.7682   3.8357   3.8375   3.8410   4.1121   4.1133
     4.1141   4.1155   4.1235   4.1265   4.1493   4.1513   4.1557   4.4181
     4.4641   4.4699   4.4702   4.7096   4.7117   4.7147   4.7789   4.7838
     4.7918   4.9311   4.9384   5.2367   5.2398   5.2439   5.7169   5.7252

          k =-0.2500 0.2500-0.2500 ( 87251 PWs)   bands (ev):

    -5.6250  -5.0985  -5.0960  -5.0943  -4.5991  -4.5968  -4.5945  -4.1638
    -4.0657  -4.0629  -4.0620  -3.6563  -3.6497  -3.6481  -3.6471  -3.6419
    -3.6377  -3.4591  -3.4562  -3.4477  -2.9616  -2.9600  -2.9568  -2.5946
    -2.5907  -2.5823  -2.4289  -2.4242  -2.4221  -2.4211  -2.4157  -2.4118
    -0.8863  -0.8823  -0.8809  -0.8786  -0.8773  -0.8665  -0.7863  -0.7825
    -0.7726  -0.6700  -0.6635  -0.6562  -0.5781  -0.5755  -0.5681   0.1282
     0.2026   0.2051   0.2061   0.2100   0.2114   0.2249   1.0816   1.0848
     1.0932   1.4141   1.4172   1.4236   2.0239   2.0258   2.0295   2.0304
     2.0310   2.0340   2.0850   2.0873   2.0906   2.6382   2.6402   2.6447
     2.7357   2.7383   2.7417   2.7452   2.7458   2.7482   2.7904   2.7962
     2.7994   3.1027   3.1055   3.1060   3.1070   3.1080   3.1167   3.3668
     3.3717   3.3742   3.3823   3.3849   3.3903   3.7324   3.7350   3.7393
     3.7544   3.7566   3.7633   3.8358   3.8376   3.8433   4.1104   4.1119
     4.1131   4.1143   4.1193   4.1244   4.1493   4.1515   4.1584   4.4153
     4.4652   4.4705   4.4736   4.7100   4.7122   4.7178   4.7779   4.7792
     4.7871   4.9304   4.9410   5.2373   5.2406   5.2485   5.7167   5.7288

          k = 0.2500-0.2500-0.2500 ( 87251 PWs)   bands (ev):

    -5.6250  -5.0985  -5.0966  -5.0940  -4.5994  -4.5966  -4.5943  -4.1627
    -4.0648  -4.0636  -4.0610  -3.6568  -3.6522  -3.6467  -3.6458  -3.6442
    -3.6380  -3.4614  -3.4534  -3.4503  -2.9602  -2.9570  -2.9556  -2.5968
    -2.5876  -2.5842  -2.4294  -2.4261  -2.4206  -2.4195  -2.4176  -2.4123
    -0.8915  -0.8789  -0.8775  -0.8759  -0.8742  -0.8709  -0.7867  -0.7783
    -0.7738  -0.6687  -0.6611  -0.6546  -0.5838  -0.5765  -0.5743   0.1244
     0.1967   0.2100   0.2115   0.2152   0.2167   0.2189   1.0773   1.0861
     1.0890   1.4130   1.4195   1.4225   2.0244   2.0273   2.0280   2.0287
     2.0325   2.0343   2.0860   2.0890   2.0913   2.6355   2.6401   2.6418
     2.7378   2.7404   2.7413   2.7444   2.7481   2.7508   2.7933   2.7971
     2.8022   3.0984   3.1071   3.1081   3.1091   3.1097   3.1125   3.3695
     3.3722   3.3748   3.3814   3.3880   3.3918   3.7293   3.7347   3.7370
     3.7498   3.7563   3.7585   3.8358   3.8414   3.8430   4.1041   4.1094
     4.1140   4.1152   4.1165   4.1177   4.1498   4.1558   4.1578   4.4112
     4.4687   4.4711   4.4765   4.7105   4.7166   4.7189   4.7717   4.7784
     4.7796   4.9314   4.9425   5.2389   5.2465   5.2494   5.7191   5.7313

     highest occupied level (ev):     5.7313

!    total energy              =   -2990.53592782 Ry
     Harris-Foulkes estimate   =   -2990.53592782 Ry
     estimated scf accuracy    <          5.6E-10 Ry

     total all-electron energy =    -37124.671481 Ry

     The total energy is the sum of the following terms:

     one-electron contribution =     178.60464463 Ry
     hartree contribution      =      35.70148338 Ry
     xc contribution           =    -391.44049713 Ry
     ewald contribution        =    -534.00654913 Ry
     one-center paw contrib.   =   -2279.39500957 Ry

     convergence has been achieved in  13 iterations

     Forces acting on atoms (cartesian axes, Ry/au):

     atom    1 type  1   force =    -0.01585079    0.00003767    0.00000104
     atom    2 type  1   force =    -0.01121635   -0.01123832   -0.00060690
     atom    3 type  1   force =     0.00004960   -0.00000379    0.00000078
     atom    4 type  1   force =     0.00003143    0.00001562    0.00000005
     atom    5 type  1   force =     0.00004984   -0.00033589   -0.00000009
     atom    6 type  1   force =     0.00003121    0.00003833    0.00000021
     atom    7 type  1   force =    -0.00045769    0.00001713    0.00000020
     atom    8 type  1   force =    -0.00031200   -0.00000462   -0.00000008
     atom    9 type  1   force =    -0.00053573    0.00015021    0.00006751
     atom   10 type  1   force =    -0.00045195    0.00025544    0.00024990
     atom   11 type  1   force =    -0.00053005    0.00014685   -0.00006206
     atom   12 type  1   force =    -0.00045137    0.00025337   -0.00025226
     atom   13 type  1   force =    -0.00051674   -0.00008637    0.00016953
     atom   14 type  1   force =    -0.00029267    0.00007553   -0.00007524
     atom   15 type  1   force =    -0.00052188   -0.00009070   -0.00017490
     atom   16 type  1   force =    -0.00029375    0.00007945    0.00007259
     atom   17 type  1   force =     0.00047548   -0.00056145   -0.00001497
     atom   18 type  1   force =     0.00048378   -0.00056469    0.00000790
     atom   19 type  1   force =     0.00008031   -0.00001571   -0.00002919
     atom   20 type  1   force =     0.00007799   -0.00001682    0.00002925
     atom   21 type  1   force =     0.00032087   -0.00018372   -0.00014535
     atom   22 type  1   force =     0.00032190   -0.00017901    0.00014764
     atom   23 type  1   force =     0.00006625    0.00001625    0.00001555
     atom   24 type  1   force =     0.00006491    0.00001681   -0.00001550
     atom   25 type  1   force =     0.00023497    0.00023174   -0.00011179
     atom   26 type  1   force =     0.00055825    0.00008871   -0.00026979
     atom   27 type  1   force =     0.00056689    0.00010827    0.00026979
     atom   28 type  1   force =     0.00024175    0.00023492    0.00011158
     atom   29 type  1   force =     0.00012729    0.00000684   -0.00000946
     atom   30 type  1   force =     0.00001775    0.00005219   -0.00002348
     atom   31 type  1   force =     0.00001861    0.00005288    0.00002292
     atom   32 type  1   force =     0.00012567    0.00000835    0.00000997
     atom   33 type  1   force =     0.00017830    0.00006988    0.00006862
     atom   34 type  1   force =     0.00026204    0.00003449    0.00007222
     atom   35 type  1   force =     0.00002001    0.00002046    0.00007888
     atom   36 type  1   force =    -0.00002238    0.00024994    0.00007630
     atom   37 type  1   force =     0.00001152    0.00004310    0.00008882
     atom   38 type  1   force =    -0.00002619    0.00007463    0.00008750
     atom   39 type  1   force =     0.00475854    0.00480964    0.00397905
     atom   40 type  1   force =     0.00394698    0.00268861    0.00276644
     atom   41 type  1   force =     0.00086571    0.00089483    0.00000640
     atom   42 type  1   force =     0.00389193   -0.00277320   -0.00269437
     atom   43 type  1   force =    -0.00004390   -0.00006086   -0.00003488
     atom   44 type  1   force =    -0.00005977   -0.00003737   -0.00004932
     atom   45 type  1   force =    -0.00005421   -0.00010288   -0.00002669
     atom   46 type  1   force =    -0.00006178    0.00010957   -0.00003771
     atom   47 type  1   force =     0.00013867   -0.00003114   -0.00003308
     atom   48 type  1   force =     0.00021778   -0.00006472   -0.00002862
     atom   49 type  1   force =    -0.00005708   -0.00003591    0.00005308
     atom   50 type  1   force =    -0.00004124   -0.00006248    0.00003852
     atom   51 type  1   force =     0.00377506   -0.00255229    0.00247322
     atom   52 type  1   force =     0.00091950    0.00084007    0.00008230
     atom   53 type  1   force =     0.00021576   -0.00006505    0.00002647
     atom   54 type  1   force =     0.00013730   -0.00003156    0.00003207
     atom   55 type  1   force =    -0.00005846    0.00010853    0.00003568
     atom   56 type  1   force =    -0.00004861   -0.00010953    0.00002478
     atom   57 type  1   force =    -0.00001951    0.00025030   -0.00007503
     atom   58 type  1   force =     0.00002094    0.00002254   -0.00008036
     atom   59 type  1   force =     0.00025938    0.00003441   -0.00007125
     atom   60 type  1   force =     0.00017630    0.00006994   -0.00006880
     atom   61 type  1   force =     0.00382877    0.00246575   -0.00254592
     atom   62 type  1   force =     0.00436239    0.00441376   -0.00344475
     atom   63 type  1   force =    -0.00001959    0.00007717   -0.00009227
     atom   64 type  1   force =     0.00001201    0.00004390   -0.00009268

     Total force =     0.027188     Total SCF correction =     0.000048


     Computing stress (Cartesian axis) and pressure

          total   stress  (Ry/bohr**3)                   (kbar)     P=    0.12
   0.00000067   0.00000009   0.00000169          0.10      0.01      0.25
   0.00000009   0.00000082   0.00000407          0.01      0.12      0.60
   0.00000169   0.00000407   0.00000089          0.25      0.60      0.13


     init_run     :     40.21s CPU     41.01s WALL (       1 calls)
     electrons    :    882.93s CPU    903.12s WALL (       1 calls)
     forces       :     11.65s CPU     11.86s WALL (       1 calls)
     stress       :     56.54s CPU     56.81s WALL (       1 calls)

     Called by init_run:
     wfcinit      :     37.16s CPU     37.84s WALL (       1 calls)
     potinit      :      1.06s CPU      1.09s WALL (       1 calls)

     Called by electrons:
     c_bands      :    733.58s CPU    750.64s WALL (      14 calls)
     sum_band     :    132.64s CPU    134.92s WALL (      14 calls)
     v_of_rho     :      5.42s CPU      5.57s WALL (      14 calls)
     newd         :      2.96s CPU      3.73s WALL (      14 calls)
     PAW_pot      :      8.12s CPU      8.11s WALL (      14 calls)
     mix_rho      :      1.24s CPU      1.26s WALL (      14 calls)

     Called by c_bands:
     init_us_2    :      7.81s CPU      7.84s WALL (     124 calls)
     cegterg      :    718.78s CPU    735.79s WALL (      56 calls)

     Called by sum_band:
     sum_band:bec :      0.03s CPU      0.02s WALL (      56 calls)
     addusdens    :      3.58s CPU      4.34s WALL (      14 calls)

     Called by *egterg:
     h_psi        :    637.56s CPU    648.21s WALL (     202 calls)
     s_psi        :     37.00s CPU     36.98s WALL (     202 calls)
     g_psi        :      1.33s CPU      1.30s WALL (     142 calls)
     cdiaghg      :      4.88s CPU      4.88s WALL (     194 calls)

     Called by h_psi:
     h_psi:pot    :    633.47s CPU    644.09s WALL (     202 calls)
     h_psi:calbec :     36.61s CPU     36.63s WALL (     202 calls)
     vloc_psi     :    560.07s CPU    570.61s WALL (     202 calls)
     add_vuspsi   :     36.78s CPU     36.84s WALL (     202 calls)

     General routines
     calbec       :     53.71s CPU     53.75s WALL (     278 calls)
     fft          :      4.54s CPU      4.79s WALL (     209 calls)
     fftw         :    566.44s CPU    577.96s WALL (   49136 calls)

     Parallel routines
     fft_scatt_xy :     95.60s CPU     96.07s WALL (   49345 calls)
     fft_scatt_yz :    104.95s CPU    110.97s WALL (   49345 calls)

     PWSCF        : 16m31.44s CPU    16m52.92s WALL


   This run was terminated on:  15: 3:12  24Oct2021            

=------------------------------------------------------------------------------=
   JOB DONE.
=------------------------------------------------------------------------------=
Note: The following floating-point exceptions are signalling: IEEE_UNDERFLOW_FLAG IEEE_DENORMAL
