
     Program PWSCF v.6.2 (svn rev. 13949:13950) starts on 25Oct2021 at  4:16: 0 

     This program is part of the open-source Quantum ESPRESSO suite
     for quantum simulation of materials; please cite
         "P. Giannozzi et al., J. Phys.:Condens. Matter 21 395502 (2009);
         "P. Giannozzi et al., J. Phys.:Condens. Matter 29 465901 (2017);
          URL http://www.quantum-espresso.org", 
     in publications or presentations arising from this work. More details at
     http://www.quantum-espresso.org/quote

     Parallel version (MPI), running on     4 processors

     MPI processes distributed on     1 nodes
     R & G space division:  proc/nbgrp/npool/nimage =       4
     Reading input from headeradd_supercell-00054.in

     Current dimensions of program PWSCF are:
     Max number of different atomic species (ntypx) = 10
     Max number of k-points (npk) =  40000
     Max angular momentum in pseudopotentials (lmaxx) =  3
     Message from routine iosys:
     minimal I/O required, wf_collect reset to FALSE
               file Si.pbe-n-kjpaw_psl.0.1.UPF: wavefunction(s)  3S renormalized

     Subspace diagonalization in iterative solution of the eigenvalue problem:
     a serial algorithm will be used


     Parallelization info
     --------------------
     sticks:   dense  smooth     PW     G-vecs:    dense   smooth      PW
     Min        2372    2372    612               174341   174341   22844
     Max        2374    2374    613               174344   174344   22847
     Sum        9493    9493   2449               697371   697371   91383



     bravais-lattice index     =            0
     lattice parameter (alat)  =      20.6591  a.u.
     unit-cell volume          =    8817.2783 (a.u.)^3
     number of atoms/cell      =           64
     number of atomic types    =            1
     number of electrons       =       256.00
     number of Kohn-Sham states=          128
     kinetic-energy cutoff     =      70.0000  Ry
     charge density cutoff     =     280.0000  Ry
     convergence threshold     =      1.0E-09
     mixing beta               =       0.7000
     number of iterations used =            8  plain     mixing
     Exchange-correlation      =  SLA  PW   PBX  PBC ( 1  4  3  4 0 0)

     celldm(1)=  20.659106  celldm(2)=   0.000000  celldm(3)=   0.000000
     celldm(4)=   0.000000  celldm(5)=   0.000000  celldm(6)=   0.000000

     crystal axes: (cart. coord. in units of alat)
               a(1) = (   1.000000   0.000000   0.000000 )  
               a(2) = (   0.000000   1.000000   0.000000 )  
               a(3) = (   0.000000   0.000000   1.000000 )  

     reciprocal axes: (cart. coord. in units 2 pi/alat)
               b(1) = (  1.000000  0.000000  0.000000 )  
               b(2) = (  0.000000  1.000000  0.000000 )  
               b(3) = (  0.000000  0.000000  1.000000 )  


     PseudoPot. # 1 for Si read from file:
     /home/uezono/pseudo/Si.pbe-n-kjpaw_psl.0.1.UPF
     MD5 check sum: 0810ef13ebffcf5dbabd57b297315270
     Pseudo is Projector augmented-wave + core cor, Zval =  4.0
     Generated using "atomic" code by A. Dal Corso  v.5.0.2 svn rev. 9415
     Shape of augmentation charge: PSQ
     Using radial grid of 1141 points,  4 beta functions with: 
                l(1) =   0
                l(2) =   0
                l(3) =   1
                l(4) =   1
     Q(r) pseudized with 0 coefficients 


     atomic species   valence    mass     pseudopotential
        Si             4.00    28.08550     Si( 1.00)

      2 Sym. Ops. (no inversion) found ( 1 have fractional translation)



   Cartesian axes

     site n.     atom                  positions (alat units)
         1           Si  tau(   1) = (   0.4404043   0.4375000   0.4375000  )
         2           Si  tau(   2) = (   0.9375000   0.4375000   0.4375000  )
         3           Si  tau(   3) = (   0.4375000   0.9375000   0.4375000  )
         4           Si  tau(   4) = (   0.9375000   0.9375000   0.4375000  )
         5           Si  tau(   5) = (   0.4375000   0.4375000   0.9375000  )
         6           Si  tau(   6) = (   0.9375000   0.4375000   0.9375000  )
         7           Si  tau(   7) = (   0.4375000   0.9375000   0.9375000  )
         8           Si  tau(   8) = (   0.9375000   0.9375000   0.9375000  )
         9           Si  tau(   9) = (   0.4375000   0.1875000   0.1875000  )
        10           Si  tau(  10) = (   0.9375000   0.1875000   0.1875000  )
        11           Si  tau(  11) = (   0.4375000   0.6875000   0.1875000  )
        12           Si  tau(  12) = (   0.9375000   0.6875000   0.1875000  )
        13           Si  tau(  13) = (   0.4375000   0.1875000   0.6875000  )
        14           Si  tau(  14) = (   0.9375000   0.1875000   0.6875000  )
        15           Si  tau(  15) = (   0.4375000   0.6875000   0.6875000  )
        16           Si  tau(  16) = (   0.9375000   0.6875000   0.6875000  )
        17           Si  tau(  17) = (   0.1875000   0.4375000   0.1875000  )
        18           Si  tau(  18) = (   0.6875000   0.4375000   0.1875000  )
        19           Si  tau(  19) = (   0.1875000   0.9375000   0.1875000  )
        20           Si  tau(  20) = (   0.6875000   0.9375000   0.1904043  )
        21           Si  tau(  21) = (   0.1875000   0.4375000   0.6875000  )
        22           Si  tau(  22) = (   0.6875000   0.4375000   0.6875000  )
        23           Si  tau(  23) = (   0.1875000   0.9375000   0.6875000  )
        24           Si  tau(  24) = (   0.6875000   0.9375000   0.6875000  )
        25           Si  tau(  25) = (   0.1875000   0.1875000   0.4375000  )
        26           Si  tau(  26) = (   0.6875000   0.1875000   0.4375000  )
        27           Si  tau(  27) = (   0.1875000   0.6875000   0.4375000  )
        28           Si  tau(  28) = (   0.6875000   0.6875000   0.4375000  )
        29           Si  tau(  29) = (   0.1875000   0.1875000   0.9375000  )
        30           Si  tau(  30) = (   0.6875000   0.1875000   0.9375000  )
        31           Si  tau(  31) = (   0.1875000   0.6875000   0.9375000  )
        32           Si  tau(  32) = (   0.6875000   0.6875000   0.9375000  )
        33           Si  tau(  33) = (   0.0625000   0.0625000   0.0625000  )
        34           Si  tau(  34) = (   0.5625000   0.0625000   0.0625000  )
        35           Si  tau(  35) = (   0.0625000   0.5625000   0.0625000  )
        36           Si  tau(  36) = (   0.5625000   0.5625000   0.0625000  )
        37           Si  tau(  37) = (   0.0625000   0.0625000   0.5625000  )
        38           Si  tau(  38) = (   0.5625000   0.0625000   0.5625000  )
        39           Si  tau(  39) = (   0.0625000   0.5625000   0.5625000  )
        40           Si  tau(  40) = (   0.5625000   0.5625000   0.5625000  )
        41           Si  tau(  41) = (   0.0625000   0.3125000   0.3125000  )
        42           Si  tau(  42) = (   0.5625000   0.3125000   0.3125000  )
        43           Si  tau(  43) = (   0.0625000   0.8125000   0.3125000  )
        44           Si  tau(  44) = (   0.5625000   0.8125000   0.3125000  )
        45           Si  tau(  45) = (   0.0625000   0.3125000   0.8125000  )
        46           Si  tau(  46) = (   0.5625000   0.3125000   0.8125000  )
        47           Si  tau(  47) = (   0.0625000   0.8125000   0.8125000  )
        48           Si  tau(  48) = (   0.5625000   0.8125000   0.8125000  )
        49           Si  tau(  49) = (   0.3125000   0.0625000   0.3125000  )
        50           Si  tau(  50) = (   0.8125000   0.0625000   0.3125000  )
        51           Si  tau(  51) = (   0.3125000   0.5625000   0.3125000  )
        52           Si  tau(  52) = (   0.8125000   0.5625000   0.3125000  )
        53           Si  tau(  53) = (   0.3125000   0.0625000   0.8125000  )
        54           Si  tau(  54) = (   0.8125000   0.0625000   0.8125000  )
        55           Si  tau(  55) = (   0.3125000   0.5625000   0.8125000  )
        56           Si  tau(  56) = (   0.8125000   0.5625000   0.8125000  )
        57           Si  tau(  57) = (   0.3125000   0.3125000   0.0625000  )
        58           Si  tau(  58) = (   0.8125000   0.3125000   0.0625000  )
        59           Si  tau(  59) = (   0.3125000   0.8125000   0.0625000  )
        60           Si  tau(  60) = (   0.8125000   0.8125000   0.0625000  )
        61           Si  tau(  61) = (   0.3125000   0.3125000   0.5625000  )
        62           Si  tau(  62) = (   0.8125000   0.3125000   0.5625000  )
        63           Si  tau(  63) = (   0.3125000   0.8125000   0.5625000  )
        64           Si  tau(  64) = (   0.8125000   0.8125000   0.5625000  )

     number of k points=     3
                       cart. coord. in units 2pi/alat
        k(    1) = (   0.2500000   0.2500000   0.2500000), wk =   0.5000000
        k(    2) = (  -0.2500000   0.2500000  -0.2500000), wk =   0.5000000
        k(    3) = (   0.2500000  -0.2500000  -0.2500000), wk =   1.0000000

     Dense  grid:   697371 G-vectors     FFT dimensions: ( 120, 120, 120)

     Estimated max dynamical RAM per process >       1.04 GB

     Estimated total dynamical RAM >       4.16 GB

     Initial potential from superposition of free atoms

     starting charge  255.96421, renormalised to  256.00000
     Starting wfc are  256 randomized atomic wfcs
     Checking if some PAW data can be deallocated... 

     total cpu time spent up to now is       31.7 secs

     Self-consistent Calculation

     iteration #  1     ecut=    70.00 Ry     beta= 0.70
     Davidson diagonalization with overlap
     ethr =  1.00E-02,  avg # of iterations =  2.0

     Threshold (ethr) on eigenvalues was too large:
     Diagonalizing with lowered threshold

     Davidson diagonalization with overlap
     ethr =  6.98E-04,  avg # of iterations =  1.0

     total cpu time spent up to now is      118.7 secs

     total energy              =   -2990.46247466 Ry
     Harris-Foulkes estimate   =   -2990.88012279 Ry
     estimated scf accuracy    <       1.76641546 Ry

     iteration #  2     ecut=    70.00 Ry     beta= 0.70
     Davidson diagonalization with overlap
     ethr =  6.90E-04,  avg # of iterations =  1.0

     total cpu time spent up to now is      155.8 secs

     total energy              =   -2990.52628237 Ry
     Harris-Foulkes estimate   =   -2990.53055821 Ry
     estimated scf accuracy    <       0.07827131 Ry

     iteration #  3     ecut=    70.00 Ry     beta= 0.70
     Davidson diagonalization with overlap
     ethr =  3.06E-05,  avg # of iterations =  2.7

     total cpu time spent up to now is      199.5 secs

     total energy              =   -2990.53501817 Ry
     Harris-Foulkes estimate   =   -2990.53564532 Ry
     estimated scf accuracy    <       0.00174284 Ry

     iteration #  4     ecut=    70.00 Ry     beta= 0.70
     Davidson diagonalization with overlap
     ethr =  6.81E-07,  avg # of iterations =  3.0

     total cpu time spent up to now is      259.0 secs

     total energy              =   -2990.53573738 Ry
     Harris-Foulkes estimate   =   -2990.53609065 Ry
     estimated scf accuracy    <       0.00087971 Ry

     iteration #  5     ecut=    70.00 Ry     beta= 0.70
     Davidson diagonalization with overlap
     ethr =  3.44E-07,  avg # of iterations =  3.0

     total cpu time spent up to now is      306.8 secs

     total energy              =   -2990.53590134 Ry
     Harris-Foulkes estimate   =   -2990.53594971 Ry
     estimated scf accuracy    <       0.00012839 Ry

     iteration #  6     ecut=    70.00 Ry     beta= 0.70
     Davidson diagonalization with overlap
     ethr =  5.02E-08,  avg # of iterations =  3.0

     total cpu time spent up to now is      357.5 secs

     total energy              =   -2990.53591983 Ry
     Harris-Foulkes estimate   =   -2990.53594361 Ry
     estimated scf accuracy    <       0.00007703 Ry

     iteration #  7     ecut=    70.00 Ry     beta= 0.70
     Davidson diagonalization with overlap
     ethr =  3.01E-08,  avg # of iterations =  2.0

     total cpu time spent up to now is      402.3 secs

     total energy              =   -2990.53593117 Ry
     Harris-Foulkes estimate   =   -2990.53593148 Ry
     estimated scf accuracy    <       0.00000044 Ry

     iteration #  8     ecut=    70.00 Ry     beta= 0.70
     Davidson diagonalization with overlap
     ethr =  1.74E-10,  avg # of iterations =  4.0

     total cpu time spent up to now is      473.1 secs

     total energy              =   -2990.53593192 Ry
     Harris-Foulkes estimate   =   -2990.53593211 Ry
     estimated scf accuracy    <       0.00000021 Ry

     iteration #  9     ecut=    70.00 Ry     beta= 0.70
     Davidson diagonalization with overlap
     ethr =  8.19E-11,  avg # of iterations =  2.0

     total cpu time spent up to now is      519.0 secs

     total energy              =   -2990.53593187 Ry
     Harris-Foulkes estimate   =   -2990.53593195 Ry
     estimated scf accuracy    <       0.00000006 Ry

     iteration # 10     ecut=    70.00 Ry     beta= 0.70
     Davidson diagonalization with overlap
     ethr =  2.41E-11,  avg # of iterations =  3.0

     total cpu time spent up to now is      567.0 secs

     total energy              =   -2990.53593186 Ry
     Harris-Foulkes estimate   =   -2990.53593188 Ry
     estimated scf accuracy    <       0.00000001 Ry

     iteration # 11     ecut=    70.00 Ry     beta= 0.70
     Davidson diagonalization with overlap
     ethr =  5.33E-12,  avg # of iterations =  3.0

     total cpu time spent up to now is      618.3 secs

     total energy              =   -2990.53593186 Ry
     Harris-Foulkes estimate   =   -2990.53593186 Ry
     estimated scf accuracy    <          6.8E-09 Ry

     iteration # 12     ecut=    70.00 Ry     beta= 0.70
     Davidson diagonalization with overlap
     ethr =  2.65E-12,  avg # of iterations =  2.0

     total cpu time spent up to now is      663.6 secs

     End of self-consistent calculation

          k = 0.2500 0.2500 0.2500 ( 87251 PWs)   bands (ev):

    -5.6250  -5.0996  -5.0968  -5.0929  -4.5996  -4.5972  -4.5934  -4.1621
    -4.0664  -4.0635  -4.0589  -3.6584  -3.6504  -3.6469  -3.6450  -3.6434
    -3.6413  -3.4594  -3.4549  -3.4520  -2.9598  -2.9582  -2.9521  -2.5937
    -2.5893  -2.5860  -2.4308  -2.4241  -2.4207  -2.4198  -2.4162  -2.4149
    -0.8850  -0.8836  -0.8780  -0.8757  -0.8723  -0.8723  -0.7825  -0.7800
    -0.7761  -0.6632  -0.6621  -0.6561  -0.5846  -0.5816  -0.5750   0.1225
     0.2059   0.2071   0.2103   0.2146   0.2168   0.2189   1.0767   1.0842
     1.0879   1.4152   1.4183   1.4215   2.0237   2.0266   2.0294   2.0301
     2.0315   2.0344   2.0879   2.0886   2.0916   2.6366   2.6376   2.6402
     2.7402   2.7407   2.7437   2.7443   2.7471   2.7506   2.7939   2.7997
     2.8026   3.1020   3.1052   3.1065   3.1080   3.1089   3.1137   3.3708
     3.3724   3.3751   3.3846   3.3876   3.3908   3.7305   3.7312   3.7356
     3.7508   3.7530   3.7567   3.8382   3.8418   3.8420   4.1046   4.1072
     4.1124   4.1136   4.1143   4.1165   4.1525   4.1563   4.1567   4.4088
     4.4710   4.4718   4.4770   4.7136   4.7178   4.7180   4.7689   4.7750
     4.7783   4.9350   4.9399   5.2425   5.2479   5.2486   5.7235   5.7292

          k =-0.2500 0.2500-0.2500 ( 87251 PWs)   bands (ev):

    -5.6251  -5.0995  -5.0984  -5.0908  -4.6000  -4.5988  -4.5915  -4.1642
    -4.0671  -4.0657  -4.0584  -3.6509  -3.6500  -3.6493  -3.6482  -3.6456
    -3.6356  -3.4576  -3.4547  -3.4498  -2.9640  -2.9620  -2.9552  -2.5924
    -2.5891  -2.5853  -2.4254  -2.4237  -2.4225  -2.4209  -2.4197  -2.4105
    -0.8842  -0.8831  -0.8802  -0.8783  -0.8756  -0.8717  -0.7847  -0.7808
    -0.7778  -0.6679  -0.6626  -0.6614  -0.5776  -0.5720  -0.5658   0.1300
     0.2039   0.2041   0.2083   0.2087   0.2149   0.2158   1.0830   1.0883
     1.0920   1.4155   1.4185   1.4208   2.0259   2.0273   2.0273   2.0296
     2.0297   2.0344   2.0849   2.0874   2.0888   2.6400   2.6427   2.6434
     2.7359   2.7395   2.7406   2.7435   2.7446   2.7470   2.7918   2.7937
     2.7970   3.1021   3.1050   3.1057   3.1077   3.1118   3.1141   3.3671
     3.3712   3.3729   3.3828   3.3849   3.3877   3.7336   3.7344   3.7408
     3.7562   3.7615   3.7621   3.8355   3.8384   3.8413   4.1114   4.1133
     4.1139   4.1164   4.1218   4.1249   4.1492   4.1522   4.1557   4.4169
     4.4646   4.4698   4.4717   4.7096   4.7123   4.7156   4.7790   4.7842
     4.7880   4.9324   4.9375   5.2372   5.2403   5.2448   5.7187   5.7244

          k = 0.2500-0.2500-0.2500 ( 87251 PWs)   bands (ev):

    -5.6250  -5.1000  -5.0970  -5.0919  -4.6003  -4.5974  -4.5925  -4.1632
    -4.0670  -4.0642  -4.0587  -3.6559  -3.6495  -3.6487  -3.6463  -3.6452
    -3.6368  -3.4592  -3.4548  -3.4503  -2.9620  -2.9600  -2.9536  -2.5945
    -2.5892  -2.5841  -2.4292  -2.4231  -2.4224  -2.4200  -2.4186  -2.4114
    -0.8872  -0.8813  -0.8791  -0.8774  -0.8754  -0.8694  -0.7858  -0.7803
    -0.7751  -0.6678  -0.6624  -0.6565  -0.5818  -0.5759  -0.5705   0.1263
     0.2012   0.2067   0.2104   0.2113   0.2147   0.2202   1.0803   1.0850
     1.0908   1.4142   1.4181   1.4227   2.0247   2.0269   2.0276   2.0296
     2.0309   2.0354   2.0857   2.0881   2.0907   2.6372   2.6401   2.6430
     2.7374   2.7390   2.7421   2.7439   2.7478   2.7485   2.7927   2.7958
     2.8010   3.1021   3.1043   3.1067   3.1073   3.1096   3.1154   3.3698
     3.3719   3.3735   3.3823   3.3862   3.3902   3.7308   3.7350   3.7377
     3.7518   3.7564   3.7614   3.8368   3.8390   3.8428   4.1056   4.1121
     4.1131   4.1145   4.1170   4.1228   4.1507   4.1531   4.1576   4.4128
     4.4687   4.4713   4.4730   4.7113   4.7141   4.7179   4.7745   4.7785
     4.7839   4.9319   4.9406   5.2393   5.2431   5.2482   5.7190   5.7288

     highest occupied level (ev):     5.7292

!    total energy              =   -2990.53593187 Ry
     Harris-Foulkes estimate   =   -2990.53593186 Ry
     estimated scf accuracy    <          9.0E-10 Ry

     total all-electron energy =    -37124.671485 Ry

     The total energy is the sum of the following terms:

     one-electron contribution =     178.60392933 Ry
     hartree contribution      =      35.70184105 Ry
     xc contribution           =    -391.44049902 Ry
     ewald contribution        =    -534.00619892 Ry
     one-center paw contrib.   =   -2279.39500431 Ry

     convergence has been achieved in  12 iterations

     Forces acting on atoms (cartesian axes, Ry/au):

     atom    1 type  1   force =    -0.01579120   -0.00000928    0.00004153
     atom    2 type  1   force =    -0.00005399    0.00001010    0.00004156
     atom    3 type  1   force =    -0.00017880   -0.00011326    0.00023735
     atom    4 type  1   force =     0.00022544    0.00011306    0.00023759
     atom    5 type  1   force =    -0.00002362   -0.00001038    0.00004310
     atom    6 type  1   force =     0.00007014    0.00000989    0.00004223
     atom    7 type  1   force =    -0.00024796   -0.00010938    0.00023189
     atom    8 type  1   force =    -0.00020236    0.00010944    0.00023145
     atom    9 type  1   force =    -0.00063778    0.00022424   -0.00040914
     atom   10 type  1   force =    -0.00011522   -0.00010429   -0.00052001
     atom   11 type  1   force =    -0.00040914    0.00022424   -0.00063778
     atom   12 type  1   force =     0.00010995   -0.00009998   -0.00053401
     atom   13 type  1   force =    -0.00053401   -0.00009998    0.00010995
     atom   14 type  1   force =    -0.00000793   -0.00001910    0.00000994
     atom   15 type  1   force =    -0.00052001   -0.00010429   -0.00011522
     atom   16 type  1   force =     0.00000994   -0.00001910   -0.00000793
     atom   17 type  1   force =     0.00023189   -0.00010938   -0.00024796
     atom   18 type  1   force =     0.00023735   -0.00011326   -0.00017880
     atom   19 type  1   force =     0.00004310   -0.00001038   -0.00002362
     atom   20 type  1   force =     0.00004153   -0.00000928   -0.01579120
     atom   21 type  1   force =     0.00023145    0.00010944   -0.00020236
     atom   22 type  1   force =     0.00023759    0.00011306    0.00022544
     atom   23 type  1   force =     0.00004223    0.00000989    0.00007014
     atom   24 type  1   force =     0.00004156    0.00001010   -0.00005399
     atom   25 type  1   force =     0.00024232    0.00015089   -0.00006663
     atom   26 type  1   force =     0.00035070   -0.00000064    0.00012366
     atom   27 type  1   force =     0.00022220   -0.00015122    0.00015143
     atom   28 type  1   force =     0.00012366   -0.00000064    0.00035070
     atom   29 type  1   force =     0.00005195   -0.00000004    0.00003249
     atom   30 type  1   force =     0.00015143   -0.00015122    0.00022220
     atom   31 type  1   force =     0.00003249   -0.00000004    0.00005195
     atom   32 type  1   force =    -0.00006663    0.00015089    0.00024232
     atom   33 type  1   force =     0.00001601   -0.00002092   -0.00002870
     atom   34 type  1   force =     0.00273767   -0.00245454    0.00383975
     atom   35 type  1   force =     0.00005391   -0.00000046    0.00027734
     atom   36 type  1   force =    -0.00000926    0.00001278   -0.00001897
     atom   37 type  1   force =     0.00005385   -0.00000376    0.00005580
     atom   38 type  1   force =    -0.00002369    0.00000118    0.00003710
     atom   39 type  1   force =     0.00001824    0.00000750    0.00001645
     atom   40 type  1   force =     0.00395628    0.00267778    0.00273094
     atom   41 type  1   force =    -0.00004059   -0.00006507    0.00021678
     atom   42 type  1   force =     0.00387665   -0.00274350   -0.00276640
     atom   43 type  1   force =    -0.00001223   -0.00007575   -0.00008842
     atom   44 type  1   force =    -0.00276640   -0.00274350    0.00387665
     atom   45 type  1   force =    -0.00000465   -0.00005799   -0.00004658
     atom   46 type  1   force =    -0.00008842   -0.00007575   -0.00001223
     atom   47 type  1   force =    -0.00004658   -0.00005799   -0.00000465
     atom   48 type  1   force =     0.00021678   -0.00006507   -0.00004059
     atom   49 type  1   force =    -0.00001897    0.00001278   -0.00000926
     atom   50 type  1   force =     0.00273094    0.00267778    0.00395628
     atom   51 type  1   force =     0.00383975   -0.00245454    0.00273767
     atom   52 type  1   force =     0.00003710    0.00000118   -0.00002369
     atom   53 type  1   force =     0.00027734   -0.00000046    0.00005391
     atom   54 type  1   force =     0.00001645    0.00000750    0.00001824
     atom   55 type  1   force =    -0.00002870   -0.00002092    0.00001601
     atom   56 type  1   force =     0.00005580   -0.00000376    0.00005385
     atom   57 type  1   force =    -0.00008624    0.00007969    0.00021476
     atom   58 type  1   force =    -0.00002371    0.00006644   -0.00008521
     atom   59 type  1   force =     0.00021476    0.00007969   -0.00008624
     atom   60 type  1   force =    -0.00250349    0.00251189    0.00378041
     atom   61 type  1   force =     0.00378041    0.00251189   -0.00250349
     atom   62 type  1   force =    -0.00004221    0.00006467   -0.00000985
     atom   63 type  1   force =    -0.00008521    0.00006644   -0.00002371
     atom   64 type  1   force =    -0.00000985    0.00006467   -0.00004221

     Total force =     0.027101     Total SCF correction =     0.000057


     Computing stress (Cartesian axis) and pressure

          total   stress  (Ry/bohr**3)                   (kbar)     P=    0.12
   0.00000074   0.00000238  -0.00000000          0.11      0.35     -0.00
   0.00000238   0.00000089   0.00000238          0.35      0.13      0.35
  -0.00000000   0.00000238   0.00000074         -0.00      0.35      0.11


     init_run     :     31.02s CPU     31.64s WALL (       1 calls)
     electrons    :    617.70s CPU    631.87s WALL (       1 calls)
     forces       :     10.34s CPU     10.57s WALL (       1 calls)
     stress       :     44.52s CPU     44.79s WALL (       1 calls)

     Called by init_run:
     wfcinit      :     27.91s CPU     28.39s WALL (       1 calls)
     potinit      :      1.05s CPU      1.09s WALL (       1 calls)

     Called by electrons:
     c_bands      :    507.62s CPU    519.11s WALL (      13 calls)
     sum_band     :     94.57s CPU     96.45s WALL (      13 calls)
     v_of_rho     :      5.06s CPU      5.19s WALL (      13 calls)
     newd         :      2.73s CPU      3.47s WALL (      13 calls)
     PAW_pot      :      7.64s CPU      7.65s WALL (      13 calls)
     mix_rho      :      1.09s CPU      1.11s WALL (      13 calls)

     Called by c_bands:
     init_us_2    :      5.18s CPU      5.22s WALL (      87 calls)
     cegterg      :    497.32s CPU    508.78s WALL (      39 calls)

     Called by sum_band:
     sum_band:bec :      0.00s CPU      0.01s WALL (      39 calls)
     addusdens    :      3.27s CPU      4.05s WALL (      13 calls)

     Called by *egterg:
     h_psi        :    443.18s CPU    450.10s WALL (     137 calls)
     s_psi        :     25.48s CPU     25.49s WALL (     137 calls)
     g_psi        :      0.88s CPU      0.89s WALL (      95 calls)
     cdiaghg      :      3.07s CPU      3.07s WALL (     131 calls)

     Called by h_psi:
     h_psi:pot    :    440.40s CPU    447.24s WALL (     137 calls)
     h_psi:calbec :     25.23s CPU     25.26s WALL (     137 calls)
     vloc_psi     :    389.76s CPU    396.60s WALL (     137 calls)
     add_vuspsi   :     25.40s CPU     25.38s WALL (     137 calls)

     General routines
     calbec       :     37.56s CPU     37.62s WALL (     191 calls)
     fft          :      4.38s CPU      4.63s WALL (     196 calls)
     fftw         :    393.52s CPU    401.24s WALL (   34114 calls)

     Parallel routines
     fft_scatt_xy :     67.24s CPU     67.47s WALL (   34310 calls)
     fft_scatt_yz :     72.38s CPU     76.24s WALL (   34310 calls)

     PWSCF        : 11m43.69s CPU    11m58.99s WALL


   This run was terminated on:   4:27:59  25Oct2021            

=------------------------------------------------------------------------------=
   JOB DONE.
=------------------------------------------------------------------------------=
Note: The following floating-point exceptions are signalling: IEEE_UNDERFLOW_FLAG IEEE_DENORMAL
