
     Program PWSCF v.6.2 (svn rev. 13949:13950) starts on 25Oct2021 at  1:10:46 

     This program is part of the open-source Quantum ESPRESSO suite
     for quantum simulation of materials; please cite
         "P. Giannozzi et al., J. Phys.:Condens. Matter 21 395502 (2009);
         "P. Giannozzi et al., J. Phys.:Condens. Matter 29 465901 (2017);
          URL http://www.quantum-espresso.org", 
     in publications or presentations arising from this work. More details at
     http://www.quantum-espresso.org/quote

     Parallel version (MPI), running on     4 processors

     MPI processes distributed on     1 nodes
     R & G space division:  proc/nbgrp/npool/nimage =       4
     Reading input from headeradd_supercell-00043.in

     Current dimensions of program PWSCF are:
     Max number of different atomic species (ntypx) = 10
     Max number of k-points (npk) =  40000
     Max angular momentum in pseudopotentials (lmaxx) =  3
     Message from routine iosys:
     minimal I/O required, wf_collect reset to FALSE
               file Si.pbe-n-kjpaw_psl.0.1.UPF: wavefunction(s)  3S renormalized

     Subspace diagonalization in iterative solution of the eigenvalue problem:
     a serial algorithm will be used


     Parallelization info
     --------------------
     sticks:   dense  smooth     PW     G-vecs:    dense   smooth      PW
     Min        2372    2372    612               174341   174341   22844
     Max        2374    2374    613               174344   174344   22847
     Sum        9493    9493   2449               697371   697371   91383



     bravais-lattice index     =            0
     lattice parameter (alat)  =      20.6591  a.u.
     unit-cell volume          =    8817.2783 (a.u.)^3
     number of atoms/cell      =           64
     number of atomic types    =            1
     number of electrons       =       256.00
     number of Kohn-Sham states=          128
     kinetic-energy cutoff     =      70.0000  Ry
     charge density cutoff     =     280.0000  Ry
     convergence threshold     =      1.0E-09
     mixing beta               =       0.7000
     number of iterations used =            8  plain     mixing
     Exchange-correlation      =  SLA  PW   PBX  PBC ( 1  4  3  4 0 0)

     celldm(1)=  20.659106  celldm(2)=   0.000000  celldm(3)=   0.000000
     celldm(4)=   0.000000  celldm(5)=   0.000000  celldm(6)=   0.000000

     crystal axes: (cart. coord. in units of alat)
               a(1) = (   1.000000   0.000000   0.000000 )  
               a(2) = (   0.000000   1.000000   0.000000 )  
               a(3) = (   0.000000   0.000000   1.000000 )  

     reciprocal axes: (cart. coord. in units 2 pi/alat)
               b(1) = (  1.000000  0.000000  0.000000 )  
               b(2) = (  0.000000  1.000000  0.000000 )  
               b(3) = (  0.000000  0.000000  1.000000 )  


     PseudoPot. # 1 for Si read from file:
     /home/uezono/pseudo/Si.pbe-n-kjpaw_psl.0.1.UPF
     MD5 check sum: 0810ef13ebffcf5dbabd57b297315270
     Pseudo is Projector augmented-wave + core cor, Zval =  4.0
     Generated using "atomic" code by A. Dal Corso  v.5.0.2 svn rev. 9415
     Shape of augmentation charge: PSQ
     Using radial grid of 1141 points,  4 beta functions with: 
                l(1) =   0
                l(2) =   0
                l(3) =   1
                l(4) =   1
     Q(r) pseudized with 0 coefficients 


     atomic species   valence    mass     pseudopotential
        Si             4.00    28.08550     Si( 1.00)

     No symmetry found



   Cartesian axes

     site n.     atom                  positions (alat units)
         1           Si  tau(   1) = (   0.4404043   0.4375000   0.4375000  )
         2           Si  tau(   2) = (   0.9375000   0.4375000   0.4375000  )
         3           Si  tau(   3) = (   0.4375000   0.9375000   0.4375000  )
         4           Si  tau(   4) = (   0.9375000   0.9375000   0.4375000  )
         5           Si  tau(   5) = (   0.4375000   0.4375000   0.9375000  )
         6           Si  tau(   6) = (   0.9375000   0.4375000   0.9375000  )
         7           Si  tau(   7) = (   0.4375000   0.9375000   0.9375000  )
         8           Si  tau(   8) = (   0.9375000   0.9375000   0.9375000  )
         9           Si  tau(   9) = (   0.4375000   0.1875000   0.1875000  )
        10           Si  tau(  10) = (   0.9375000   0.1875000   0.1875000  )
        11           Si  tau(  11) = (   0.4375000   0.6875000   0.1875000  )
        12           Si  tau(  12) = (   0.9375000   0.6875000   0.1875000  )
        13           Si  tau(  13) = (   0.4375000   0.1875000   0.6875000  )
        14           Si  tau(  14) = (   0.9375000   0.1875000   0.6875000  )
        15           Si  tau(  15) = (   0.4375000   0.6875000   0.6875000  )
        16           Si  tau(  16) = (   0.9375000   0.6875000   0.6875000  )
        17           Si  tau(  17) = (   0.1875000   0.4375000   0.1875000  )
        18           Si  tau(  18) = (   0.6875000   0.4375000   0.1845957  )
        19           Si  tau(  19) = (   0.1875000   0.9375000   0.1875000  )
        20           Si  tau(  20) = (   0.6875000   0.9375000   0.1875000  )
        21           Si  tau(  21) = (   0.1875000   0.4375000   0.6875000  )
        22           Si  tau(  22) = (   0.6875000   0.4375000   0.6875000  )
        23           Si  tau(  23) = (   0.1875000   0.9375000   0.6875000  )
        24           Si  tau(  24) = (   0.6875000   0.9375000   0.6875000  )
        25           Si  tau(  25) = (   0.1875000   0.1875000   0.4375000  )
        26           Si  tau(  26) = (   0.6875000   0.1875000   0.4375000  )
        27           Si  tau(  27) = (   0.1875000   0.6875000   0.4375000  )
        28           Si  tau(  28) = (   0.6875000   0.6875000   0.4375000  )
        29           Si  tau(  29) = (   0.1875000   0.1875000   0.9375000  )
        30           Si  tau(  30) = (   0.6875000   0.1875000   0.9375000  )
        31           Si  tau(  31) = (   0.1875000   0.6875000   0.9375000  )
        32           Si  tau(  32) = (   0.6875000   0.6875000   0.9375000  )
        33           Si  tau(  33) = (   0.0625000   0.0625000   0.0625000  )
        34           Si  tau(  34) = (   0.5625000   0.0625000   0.0625000  )
        35           Si  tau(  35) = (   0.0625000   0.5625000   0.0625000  )
        36           Si  tau(  36) = (   0.5625000   0.5625000   0.0625000  )
        37           Si  tau(  37) = (   0.0625000   0.0625000   0.5625000  )
        38           Si  tau(  38) = (   0.5625000   0.0625000   0.5625000  )
        39           Si  tau(  39) = (   0.0625000   0.5625000   0.5625000  )
        40           Si  tau(  40) = (   0.5625000   0.5625000   0.5625000  )
        41           Si  tau(  41) = (   0.0625000   0.3125000   0.3125000  )
        42           Si  tau(  42) = (   0.5625000   0.3125000   0.3125000  )
        43           Si  tau(  43) = (   0.0625000   0.8125000   0.3125000  )
        44           Si  tau(  44) = (   0.5625000   0.8125000   0.3125000  )
        45           Si  tau(  45) = (   0.0625000   0.3125000   0.8125000  )
        46           Si  tau(  46) = (   0.5625000   0.3125000   0.8125000  )
        47           Si  tau(  47) = (   0.0625000   0.8125000   0.8125000  )
        48           Si  tau(  48) = (   0.5625000   0.8125000   0.8125000  )
        49           Si  tau(  49) = (   0.3125000   0.0625000   0.3125000  )
        50           Si  tau(  50) = (   0.8125000   0.0625000   0.3125000  )
        51           Si  tau(  51) = (   0.3125000   0.5625000   0.3125000  )
        52           Si  tau(  52) = (   0.8125000   0.5625000   0.3125000  )
        53           Si  tau(  53) = (   0.3125000   0.0625000   0.8125000  )
        54           Si  tau(  54) = (   0.8125000   0.0625000   0.8125000  )
        55           Si  tau(  55) = (   0.3125000   0.5625000   0.8125000  )
        56           Si  tau(  56) = (   0.8125000   0.5625000   0.8125000  )
        57           Si  tau(  57) = (   0.3125000   0.3125000   0.0625000  )
        58           Si  tau(  58) = (   0.8125000   0.3125000   0.0625000  )
        59           Si  tau(  59) = (   0.3125000   0.8125000   0.0625000  )
        60           Si  tau(  60) = (   0.8125000   0.8125000   0.0625000  )
        61           Si  tau(  61) = (   0.3125000   0.3125000   0.5625000  )
        62           Si  tau(  62) = (   0.8125000   0.3125000   0.5625000  )
        63           Si  tau(  63) = (   0.3125000   0.8125000   0.5625000  )
        64           Si  tau(  64) = (   0.8125000   0.8125000   0.5625000  )

     number of k points=     4
                       cart. coord. in units 2pi/alat
        k(    1) = (   0.2500000   0.2500000   0.2500000), wk =   0.5000000
        k(    2) = (  -0.2500000  -0.2500000   0.2500000), wk =   0.5000000
        k(    3) = (  -0.2500000   0.2500000  -0.2500000), wk =   0.5000000
        k(    4) = (   0.2500000  -0.2500000  -0.2500000), wk =   0.5000000

     Dense  grid:   697371 G-vectors     FFT dimensions: ( 120, 120, 120)

     Estimated max dynamical RAM per process >       1.08 GB

     Estimated total dynamical RAM >       4.33 GB

     Initial potential from superposition of free atoms

     starting charge  255.96421, renormalised to  256.00000
     Starting wfc are  256 randomized atomic wfcs
     Checking if some PAW data can be deallocated... 

     total cpu time spent up to now is       41.1 secs

     Self-consistent Calculation

     iteration #  1     ecut=    70.00 Ry     beta= 0.70
     Davidson diagonalization with overlap
     ethr =  1.00E-02,  avg # of iterations =  2.0

     Threshold (ethr) on eigenvalues was too large:
     Diagonalizing with lowered threshold

     Davidson diagonalization with overlap
     ethr =  6.98E-04,  avg # of iterations =  1.0

     total cpu time spent up to now is      155.9 secs

     total energy              =   -2990.46250033 Ry
     Harris-Foulkes estimate   =   -2990.88046209 Ry
     estimated scf accuracy    <       1.76651032 Ry

     iteration #  2     ecut=    70.00 Ry     beta= 0.70
     Davidson diagonalization with overlap
     ethr =  6.90E-04,  avg # of iterations =  1.0

     total cpu time spent up to now is      204.7 secs

     total energy              =   -2990.52629851 Ry
     Harris-Foulkes estimate   =   -2990.53060221 Ry
     estimated scf accuracy    <       0.07825897 Ry

     iteration #  3     ecut=    70.00 Ry     beta= 0.70
     Davidson diagonalization with overlap
     ethr =  3.06E-05,  avg # of iterations =  2.8

     total cpu time spent up to now is      262.3 secs

     total energy              =   -2990.53500521 Ry
     Harris-Foulkes estimate   =   -2990.53565491 Ry
     estimated scf accuracy    <       0.00176785 Ry

     iteration #  4     ecut=    70.00 Ry     beta= 0.70
     Davidson diagonalization with overlap
     ethr =  6.91E-07,  avg # of iterations =  3.2

     total cpu time spent up to now is      344.1 secs

     total energy              =   -2990.53560839 Ry
     Harris-Foulkes estimate   =   -2990.53621670 Ry
     estimated scf accuracy    <       0.00174437 Ry

     iteration #  5     ecut=    70.00 Ry     beta= 0.70
     Davidson diagonalization with overlap
     ethr =  6.81E-07,  avg # of iterations =  2.0

     total cpu time spent up to now is      403.9 secs

     total energy              =   -2990.53590282 Ry
     Harris-Foulkes estimate   =   -2990.53596389 Ry
     estimated scf accuracy    <       0.00017708 Ry

     iteration #  6     ecut=    70.00 Ry     beta= 0.70
     Davidson diagonalization with overlap
     ethr =  6.92E-08,  avg # of iterations =  3.0

     total cpu time spent up to now is      469.1 secs

     total energy              =   -2990.53593043 Ry
     Harris-Foulkes estimate   =   -2990.53595106 Ry
     estimated scf accuracy    <       0.00005781 Ry

     iteration #  7     ecut=    70.00 Ry     beta= 0.70
     Davidson diagonalization with overlap
     ethr =  2.26E-08,  avg # of iterations =  2.0

     total cpu time spent up to now is      529.3 secs

     total energy              =   -2990.53594042 Ry
     Harris-Foulkes estimate   =   -2990.53594082 Ry
     estimated scf accuracy    <       0.00000069 Ry

     iteration #  8     ecut=    70.00 Ry     beta= 0.70
     Davidson diagonalization with overlap
     ethr =  2.68E-10,  avg # of iterations =  4.0

     total cpu time spent up to now is      620.5 secs

     total energy              =   -2990.53594121 Ry
     Harris-Foulkes estimate   =   -2990.53594144 Ry
     estimated scf accuracy    <       0.00000043 Ry

     iteration #  9     ecut=    70.00 Ry     beta= 0.70
     Davidson diagonalization with overlap
     ethr =  1.70E-10,  avg # of iterations =  3.0

     total cpu time spent up to now is      680.8 secs

     total energy              =   -2990.53594114 Ry
     Harris-Foulkes estimate   =   -2990.53594129 Ry
     estimated scf accuracy    <       0.00000015 Ry

     iteration # 10     ecut=    70.00 Ry     beta= 0.70
     Davidson diagonalization with overlap
     ethr =  5.98E-11,  avg # of iterations =  2.0

     total cpu time spent up to now is      740.3 secs

     total energy              =   -2990.53594112 Ry
     Harris-Foulkes estimate   =   -2990.53594117 Ry
     estimated scf accuracy    <       0.00000002 Ry

     iteration # 11     ecut=    70.00 Ry     beta= 0.70
     Davidson diagonalization with overlap
     ethr =  5.97E-12,  avg # of iterations =  3.0

     total cpu time spent up to now is      813.1 secs

     total energy              =   -2990.53594112 Ry
     Harris-Foulkes estimate   =   -2990.53594112 Ry
     estimated scf accuracy    <          4.9E-09 Ry

     iteration # 12     ecut=    70.00 Ry     beta= 0.70
     Davidson diagonalization with overlap
     ethr =  1.93E-12,  avg # of iterations =  3.0

     total cpu time spent up to now is      879.1 secs

     total energy              =   -2990.53594112 Ry
     Harris-Foulkes estimate   =   -2990.53594112 Ry
     estimated scf accuracy    <          1.8E-09 Ry

     iteration # 13     ecut=    70.00 Ry     beta= 0.70
     Davidson diagonalization with overlap
     ethr =  7.10E-13,  avg # of iterations =  3.0

     total cpu time spent up to now is      944.1 secs

     End of self-consistent calculation

          k = 0.2500 0.2500 0.2500 ( 87251 PWs)   bands (ev):

    -5.6250  -5.0973  -5.0963  -5.0953  -4.5977  -4.5967  -4.5958  -4.1632
    -4.0648  -4.0633  -4.0617  -3.6555  -3.6494  -3.6475  -3.6465  -3.6446
    -3.6390  -3.4593  -3.4548  -3.4502  -2.9618  -2.9585  -2.9554  -2.5945
    -2.5892  -2.5843  -2.4292  -2.4238  -2.4210  -2.4206  -2.4179  -2.4121
    -0.8888  -0.8817  -0.8783  -0.8778  -0.8748  -0.8691  -0.7857  -0.7803
    -0.7749  -0.6676  -0.6623  -0.6563  -0.5831  -0.5762  -0.5690   0.1263
     0.2011   0.2064   0.2094   0.2120   0.2149   0.2208   1.0792   1.0853
     1.0914   1.4139   1.4184   1.4227   2.0237   2.0277   2.0288   2.0297
     2.0307   2.0345   2.0848   2.0881   2.0916   2.6372   2.6401   2.6430
     2.7369   2.7391   2.7426   2.7438   2.7472   2.7495   2.7919   2.7965
     2.8008   3.1026   3.1049   3.1069   3.1083   3.1103   3.1125   3.3696
     3.3720   3.3732   3.3822   3.3869   3.3901   3.7322   3.7348   3.7360
     3.7521   3.7562   3.7617   3.8363   3.8396   3.8427   4.1064   4.1126
     4.1131   4.1153   4.1155   4.1218   4.1500   4.1539   4.1576   4.4129
     4.4687   4.4713   4.4730   4.7107   4.7143   4.7182   4.7729   4.7787
     4.7852   4.9319   4.9406   5.2384   5.2435   5.2487   5.7191   5.7289

          k =-0.2500-0.2500 0.2500 ( 87251 PWs)   bands (ev):

    -5.6251  -5.0987  -5.0962  -5.0936  -4.5992  -4.5969  -4.5941  -4.1642
    -4.0663  -4.0636  -4.0612  -3.6524  -3.6491  -3.6488  -3.6474  -3.6419
    -3.6398  -3.4576  -3.4548  -3.4498  -2.9639  -2.9606  -2.9568  -2.5924
    -2.5891  -2.5853  -2.4262  -2.4239  -2.4228  -2.4212  -2.4162  -2.4126
    -0.8858  -0.8829  -0.8805  -0.8784  -0.8750  -0.8703  -0.7847  -0.7812
    -0.7780  -0.6678  -0.6625  -0.6613  -0.5766  -0.5755  -0.5631   0.1301
     0.2015   0.2049   0.2085   0.2105   0.2148   0.2154   1.0830   1.0865
     1.0938   1.4153   1.4185   1.4211   2.0253   2.0268   2.0281   2.0297
     2.0314   2.0329   2.0843   2.0865   2.0903   2.6399   2.6426   2.6435
     2.7367   2.7372   2.7408   2.7438   2.7452   2.7471   2.7912   2.7945
     2.7969   3.1035   3.1055   3.1064   3.1077   3.1106   3.1128   3.3677
     3.3711   3.3727   3.3822   3.3852   3.3877   3.7337   3.7362   3.7396
     3.7564   3.7611   3.7615   3.8350   3.8391   3.8411   4.1124   4.1134
     4.1146   4.1160   4.1211   4.1239   4.1485   4.1533   4.1555   4.4169
     4.4647   4.4698   4.4716   4.7085   4.7138   4.7151   4.7792   4.7812
     4.7908   4.9325   4.9375   5.2355   5.2426   5.2442   5.7188   5.7244

          k =-0.2500 0.2500-0.2500 ( 87251 PWs)   bands (ev):

    -5.6250  -5.0999  -5.0963  -5.0928  -4.6003  -4.5967  -4.5931  -4.1631
    -4.0666  -4.0634  -4.0601  -3.6547  -3.6503  -3.6470  -3.6469  -3.6437
    -3.6398  -3.4592  -3.4549  -3.4501  -2.9624  -2.9586  -2.9548  -2.5944
    -2.5892  -2.5842  -2.4281  -2.4238  -2.4210  -2.4208  -2.4177  -2.4133
    -0.8876  -0.8820  -0.8785  -0.8777  -0.8746  -0.8697  -0.7858  -0.7804
    -0.7750  -0.6677  -0.6623  -0.6564  -0.5836  -0.5762  -0.5683   0.1263
     0.2013   0.2059   0.2102   0.2111   0.2160   0.2202   1.0803   1.0854
     1.0903   1.4143   1.4183   1.4224   2.0258   2.0268   2.0276   2.0308
     2.0315   2.0325   2.0848   2.0881   2.0917   2.6372   2.6401   2.6430
     2.7374   2.7389   2.7424   2.7441   2.7472   2.7488   2.7932   2.7967
     2.7996   3.1009   3.1062   3.1071   3.1081   3.1090   3.1141   3.3698
     3.3715   3.3733   3.3822   3.3867   3.3903   3.7300   3.7347   3.7384
     3.7519   3.7565   3.7616   3.8359   3.8396   3.8432   4.1058   4.1108
     4.1139   4.1145   4.1176   4.1230   4.1494   4.1536   4.1578   4.4129
     4.4687   4.4713   4.4731   4.7103   4.7143   4.7186   4.7735   4.7786
     4.7848   4.9319   4.9405   5.2380   5.2435   5.2491   5.7191   5.7289

          k = 0.2500-0.2500-0.2500 ( 87251 PWs)   bands (ev):

    -5.6249  -5.0991  -5.0964  -5.0938  -4.5994  -4.5965  -4.5941  -4.1621
    -4.0656  -4.0630  -4.0604  -3.6546  -3.6524  -3.6465  -3.6452  -3.6449
    -3.6417  -3.4595  -3.4549  -3.4520  -2.9602  -2.9564  -2.9535  -2.5935
    -2.5893  -2.5861  -2.4287  -2.4254  -2.4205  -2.4188  -2.4177  -2.4154
    -0.8869  -0.8815  -0.8777  -0.8758  -0.8739  -0.8714  -0.7826  -0.7802
    -0.7759  -0.6632  -0.6619  -0.6560  -0.5884  -0.5769  -0.5757   0.1226
     0.2062   0.2067   0.2109   0.2130   0.2166   0.2203   1.0770   1.0842
     1.0877   1.4154   1.4183   1.4214   2.0253   2.0269   2.0287   2.0304
     2.0315   2.0329   2.0860   2.0899   2.0920   2.6366   2.6376   2.6401
     2.7395   2.7414   2.7427   2.7456   2.7482   2.7493   2.7957   2.7984
     2.8021   3.1022   3.1045   3.1074   3.1088   3.1098   3.1118   3.3709
     3.3722   3.3757   3.3851   3.3871   3.3902   3.7292   3.7330   3.7358
     3.7510   3.7522   3.7567   3.8385   3.8398   3.8439   4.1040   4.1073
     4.1126   4.1140   4.1151   4.1158   4.1524   4.1538   4.1588   4.4088
     4.4711   4.4718   4.4771   4.7138   4.7151   4.7204   4.7679   4.7763
     4.7781   4.9350   4.9399   5.2429   5.2442   5.2517   5.7235   5.7292

     highest occupied level (ev):     5.7292

!    total energy              =   -2990.53594113 Ry
     Harris-Foulkes estimate   =   -2990.53594112 Ry
     estimated scf accuracy    <          8.5E-10 Ry

     total all-electron energy =    -37124.671494 Ry

     The total energy is the sum of the following terms:

     one-electron contribution =     178.60479834 Ry
     hartree contribution      =      35.70140345 Ry
     xc contribution           =    -391.44049119 Ry
     ewald contribution        =    -534.00664476 Ry
     one-center paw contrib.   =   -2279.39500695 Ry

     convergence has been achieved in  13 iterations

     Forces acting on atoms (cartesian axes, Ry/au):

     atom    1 type  1   force =    -0.01563422    0.00011134   -0.00023916
     atom    2 type  1   force =    -0.00020466   -0.00011071   -0.00023068
     atom    3 type  1   force =    -0.00002262    0.00001053   -0.00004140
     atom    4 type  1   force =     0.00007009   -0.00000853   -0.00004272
     atom    5 type  1   force =    -0.00017831    0.00011308   -0.00023774
     atom    6 type  1   force =     0.00022597   -0.00011399   -0.00023787
     atom    7 type  1   force =    -0.00039965    0.00001051   -0.00004272
     atom    8 type  1   force =    -0.00005157   -0.00000879   -0.00004233
     atom    9 type  1   force =    -0.00063755    0.00000879    0.00063854
     atom   10 type  1   force =    -0.00011469    0.00012338    0.00053821
     atom   11 type  1   force =    -0.00041010   -0.00000469    0.00041855
     atom   12 type  1   force =     0.00010965    0.00011872    0.00051409
     atom   13 type  1   force =    -0.00053307   -0.00011932    0.00010892
     atom   14 type  1   force =    -0.00000913    0.00000034    0.00001052
     atom   15 type  1   force =    -0.00051963   -0.00012382   -0.00011325
     atom   16 type  1   force =     0.00000972   -0.00000024   -0.00000956
     atom   17 type  1   force =     0.00023083   -0.00011084    0.00017321
     atom   18 type  1   force =     0.00023064   -0.00011197    0.01563845
     atom   19 type  1   force =     0.00004147   -0.00000825    0.00039733
     atom   20 type  1   force =     0.00004346   -0.00000891    0.00002219
     atom   21 type  1   force =     0.00023053    0.00011008   -0.00022077
     atom   22 type  1   force =     0.00023847    0.00011270    0.00021090
     atom   23 type  1   force =     0.00004192    0.00000993    0.00005329
     atom   24 type  1   force =     0.00004214    0.00001101   -0.00006961
     atom   25 type  1   force =     0.00024031    0.00015138   -0.00015248
     atom   26 type  1   force =     0.00034588   -0.00000499   -0.00034692
     atom   27 type  1   force =     0.00022099   -0.00015103    0.00006802
     atom   28 type  1   force =     0.00012850    0.00000579   -0.00011742
     atom   29 type  1   force =     0.00005127   -0.00000045   -0.00005180
     atom   30 type  1   force =     0.00015627   -0.00015542   -0.00024777
     atom   31 type  1   force =     0.00003211    0.00000079   -0.00003338
     atom   32 type  1   force =    -0.00007119    0.00015586   -0.00022801
     atom   33 type  1   force =    -0.00004956    0.00005983   -0.00022470
     atom   34 type  1   force =     0.00020588    0.00006782    0.00008857
     atom   35 type  1   force =    -0.00001330    0.00007580    0.00008525
     atom   36 type  1   force =    -0.00276351    0.00275261   -0.00389010
     atom   37 type  1   force =    -0.00000578    0.00005680    0.00004894
     atom   38 type  1   force =    -0.00008632    0.00006418    0.00002483
     atom   39 type  1   force =    -0.00003757    0.00006386    0.00001231
     atom   40 type  1   force =     0.00389010    0.00274210    0.00271792
     atom   41 type  1   force =     0.00002456    0.00001322    0.00002083
     atom   42 type  1   force =     0.00641111   -0.00022917   -0.00651375
     atom   43 type  1   force =     0.00005303    0.00000318   -0.00027843
     atom   44 type  1   force =    -0.00000846   -0.00000129    0.00000909
     atom   45 type  1   force =     0.00005200    0.00000143   -0.00005278
     atom   46 type  1   force =    -0.00002253   -0.00001254   -0.00002583
     atom   47 type  1   force =     0.00000931   -0.00000021   -0.00000946
     atom   48 type  1   force =     0.00028465   -0.00000119   -0.00005608
     atom   49 type  1   force =    -0.00008724   -0.00006362   -0.00020033
     atom   50 type  1   force =    -0.00002278   -0.00006344    0.00008892
     atom   51 type  1   force =     0.00377265   -0.00253548    0.00254228
     atom   52 type  1   force =    -0.00249372   -0.00251991   -0.00377347
     atom   53 type  1   force =     0.00022069   -0.00005807    0.00004958
     atom   54 type  1   force =    -0.00004993   -0.00005605    0.00000234
     atom   55 type  1   force =    -0.00008616   -0.00008096    0.00000913
     atom   56 type  1   force =    -0.00000943   -0.00006801    0.00003956
     atom   57 type  1   force =    -0.00002081    0.00000129    0.00002348
     atom   58 type  1   force =     0.00273260   -0.00267684   -0.00395467
     atom   59 type  1   force =     0.00027966   -0.00000042   -0.00028372
     atom   60 type  1   force =     0.00002898   -0.00000796    0.00003017
     atom   61 type  1   force =     0.00383546    0.00245335   -0.00250778
     atom   62 type  1   force =     0.00002592   -0.00000119   -0.00002453
     atom   63 type  1   force =    -0.00002848    0.00000623   -0.00002910
     atom   64 type  1   force =     0.00005515    0.00000233   -0.00005510

     Total force =     0.027367     Total SCF correction =     0.000060


     Computing stress (Cartesian axis) and pressure

          total   stress  (Ry/bohr**3)                   (kbar)     P=    0.12
   0.00000074  -0.00000238   0.00000000          0.11     -0.35      0.00
  -0.00000238   0.00000089   0.00000238         -0.35      0.13      0.35
   0.00000000   0.00000238   0.00000074          0.00      0.35      0.11


     init_run     :     40.16s CPU     40.97s WALL (       1 calls)
     electrons    :    882.34s CPU    902.98s WALL (       1 calls)
     forces       :     11.58s CPU     11.80s WALL (       1 calls)
     stress       :     56.52s CPU     56.82s WALL (       1 calls)

     Called by init_run:
     wfcinit      :     37.08s CPU     37.79s WALL (       1 calls)
     potinit      :      1.08s CPU      1.10s WALL (       1 calls)

     Called by electrons:
     c_bands      :    733.52s CPU    750.77s WALL (      14 calls)
     sum_band     :    132.16s CPU    134.63s WALL (      14 calls)
     v_of_rho     :      5.45s CPU      5.58s WALL (      14 calls)
     newd         :      2.92s CPU      3.73s WALL (      14 calls)
     PAW_pot      :      8.12s CPU      8.12s WALL (      14 calls)
     mix_rho      :      1.21s CPU      1.25s WALL (      14 calls)

     Called by c_bands:
     init_us_2    :      7.78s CPU      7.80s WALL (     124 calls)
     cegterg      :    718.66s CPU    735.86s WALL (      56 calls)

     Called by sum_band:
     sum_band:bec :      0.03s CPU      0.02s WALL (      56 calls)
     addusdens    :      3.50s CPU      4.35s WALL (      14 calls)

     Called by *egterg:
     h_psi        :    638.02s CPU    648.87s WALL (     200 calls)
     s_psi        :     36.70s CPU     36.72s WALL (     200 calls)
     g_psi        :      1.26s CPU      1.29s WALL (     140 calls)
     cdiaghg      :      4.51s CPU      4.57s WALL (     192 calls)

     Called by h_psi:
     h_psi:pot    :    633.94s CPU    644.77s WALL (     200 calls)
     h_psi:calbec :     36.46s CPU     36.52s WALL (     200 calls)
     vloc_psi     :    560.97s CPU    571.71s WALL (     200 calls)
     add_vuspsi   :     36.50s CPU     36.54s WALL (     200 calls)

     General routines
     calbec       :     53.60s CPU     53.66s WALL (     276 calls)
     fft          :      4.49s CPU      4.80s WALL (     209 calls)
     fftw         :    567.11s CPU    578.96s WALL (   49038 calls)

     Parallel routines
     fft_scatt_xy :     96.38s CPU     96.46s WALL (   49247 calls)
     fft_scatt_yz :    104.18s CPU    110.84s WALL (   49247 calls)

     PWSCF        : 16m30.70s CPU    16m52.71s WALL


   This run was terminated on:   1:27:39  25Oct2021            

=------------------------------------------------------------------------------=
   JOB DONE.
=------------------------------------------------------------------------------=
Note: The following floating-point exceptions are signalling: IEEE_UNDERFLOW_FLAG IEEE_DENORMAL
