
     Program PWSCF v.6.2 (svn rev. 13949:13950) starts on 25Oct2021 at  3: 8:39 

     This program is part of the open-source Quantum ESPRESSO suite
     for quantum simulation of materials; please cite
         "P. Giannozzi et al., J. Phys.:Condens. Matter 21 395502 (2009);
         "P. Giannozzi et al., J. Phys.:Condens. Matter 29 465901 (2017);
          URL http://www.quantum-espresso.org", 
     in publications or presentations arising from this work. More details at
     http://www.quantum-espresso.org/quote

     Parallel version (MPI), running on     4 processors

     MPI processes distributed on     1 nodes
     R & G space division:  proc/nbgrp/npool/nimage =       4
     Reading input from headeradd_supercell-00050.in

     Current dimensions of program PWSCF are:
     Max number of different atomic species (ntypx) = 10
     Max number of k-points (npk) =  40000
     Max angular momentum in pseudopotentials (lmaxx) =  3
     Message from routine iosys:
     minimal I/O required, wf_collect reset to FALSE
               file Si.pbe-n-kjpaw_psl.0.1.UPF: wavefunction(s)  3S renormalized

     Subspace diagonalization in iterative solution of the eigenvalue problem:
     a serial algorithm will be used


     Parallelization info
     --------------------
     sticks:   dense  smooth     PW     G-vecs:    dense   smooth      PW
     Min        2372    2372    612               174341   174341   22844
     Max        2374    2374    613               174344   174344   22847
     Sum        9493    9493   2449               697371   697371   91383



     bravais-lattice index     =            0
     lattice parameter (alat)  =      20.6591  a.u.
     unit-cell volume          =    8817.2783 (a.u.)^3
     number of atoms/cell      =           64
     number of atomic types    =            1
     number of electrons       =       256.00
     number of Kohn-Sham states=          128
     kinetic-energy cutoff     =      70.0000  Ry
     charge density cutoff     =     280.0000  Ry
     convergence threshold     =      1.0E-09
     mixing beta               =       0.7000
     number of iterations used =            8  plain     mixing
     Exchange-correlation      =  SLA  PW   PBX  PBC ( 1  4  3  4 0 0)

     celldm(1)=  20.659106  celldm(2)=   0.000000  celldm(3)=   0.000000
     celldm(4)=   0.000000  celldm(5)=   0.000000  celldm(6)=   0.000000

     crystal axes: (cart. coord. in units of alat)
               a(1) = (   1.000000   0.000000   0.000000 )  
               a(2) = (   0.000000   1.000000   0.000000 )  
               a(3) = (   0.000000   0.000000   1.000000 )  

     reciprocal axes: (cart. coord. in units 2 pi/alat)
               b(1) = (  1.000000  0.000000  0.000000 )  
               b(2) = (  0.000000  1.000000  0.000000 )  
               b(3) = (  0.000000  0.000000  1.000000 )  


     PseudoPot. # 1 for Si read from file:
     /home/uezono/pseudo/Si.pbe-n-kjpaw_psl.0.1.UPF
     MD5 check sum: 0810ef13ebffcf5dbabd57b297315270
     Pseudo is Projector augmented-wave + core cor, Zval =  4.0
     Generated using "atomic" code by A. Dal Corso  v.5.0.2 svn rev. 9415
     Shape of augmentation charge: PSQ
     Using radial grid of 1141 points,  4 beta functions with: 
                l(1) =   0
                l(2) =   0
                l(3) =   1
                l(4) =   1
     Q(r) pseudized with 0 coefficients 


     atomic species   valence    mass     pseudopotential
        Si             4.00    28.08550     Si( 1.00)

     No symmetry found



   Cartesian axes

     site n.     atom                  positions (alat units)
         1           Si  tau(   1) = (   0.4404043   0.4375000   0.4375000  )
         2           Si  tau(   2) = (   0.9375000   0.4375000   0.4375000  )
         3           Si  tau(   3) = (   0.4375000   0.9375000   0.4375000  )
         4           Si  tau(   4) = (   0.9375000   0.9375000   0.4375000  )
         5           Si  tau(   5) = (   0.4375000   0.4375000   0.9375000  )
         6           Si  tau(   6) = (   0.9375000   0.4375000   0.9375000  )
         7           Si  tau(   7) = (   0.4375000   0.9375000   0.9375000  )
         8           Si  tau(   8) = (   0.9375000   0.9375000   0.9375000  )
         9           Si  tau(   9) = (   0.4375000   0.1875000   0.1875000  )
        10           Si  tau(  10) = (   0.9375000   0.1875000   0.1875000  )
        11           Si  tau(  11) = (   0.4375000   0.6875000   0.1875000  )
        12           Si  tau(  12) = (   0.9375000   0.6875000   0.1875000  )
        13           Si  tau(  13) = (   0.4375000   0.1875000   0.6875000  )
        14           Si  tau(  14) = (   0.9375000   0.1875000   0.6875000  )
        15           Si  tau(  15) = (   0.4375000   0.6875000   0.6875000  )
        16           Si  tau(  16) = (   0.9375000   0.6875000   0.6875000  )
        17           Si  tau(  17) = (   0.1875000   0.4375000   0.1875000  )
        18           Si  tau(  18) = (   0.6875000   0.4375000   0.1875000  )
        19           Si  tau(  19) = (   0.1875000   0.9375000   0.1875000  )
        20           Si  tau(  20) = (   0.6904043   0.9375000   0.1875000  )
        21           Si  tau(  21) = (   0.1875000   0.4375000   0.6875000  )
        22           Si  tau(  22) = (   0.6875000   0.4375000   0.6875000  )
        23           Si  tau(  23) = (   0.1875000   0.9375000   0.6875000  )
        24           Si  tau(  24) = (   0.6875000   0.9375000   0.6875000  )
        25           Si  tau(  25) = (   0.1875000   0.1875000   0.4375000  )
        26           Si  tau(  26) = (   0.6875000   0.1875000   0.4375000  )
        27           Si  tau(  27) = (   0.1875000   0.6875000   0.4375000  )
        28           Si  tau(  28) = (   0.6875000   0.6875000   0.4375000  )
        29           Si  tau(  29) = (   0.1875000   0.1875000   0.9375000  )
        30           Si  tau(  30) = (   0.6875000   0.1875000   0.9375000  )
        31           Si  tau(  31) = (   0.1875000   0.6875000   0.9375000  )
        32           Si  tau(  32) = (   0.6875000   0.6875000   0.9375000  )
        33           Si  tau(  33) = (   0.0625000   0.0625000   0.0625000  )
        34           Si  tau(  34) = (   0.5625000   0.0625000   0.0625000  )
        35           Si  tau(  35) = (   0.0625000   0.5625000   0.0625000  )
        36           Si  tau(  36) = (   0.5625000   0.5625000   0.0625000  )
        37           Si  tau(  37) = (   0.0625000   0.0625000   0.5625000  )
        38           Si  tau(  38) = (   0.5625000   0.0625000   0.5625000  )
        39           Si  tau(  39) = (   0.0625000   0.5625000   0.5625000  )
        40           Si  tau(  40) = (   0.5625000   0.5625000   0.5625000  )
        41           Si  tau(  41) = (   0.0625000   0.3125000   0.3125000  )
        42           Si  tau(  42) = (   0.5625000   0.3125000   0.3125000  )
        43           Si  tau(  43) = (   0.0625000   0.8125000   0.3125000  )
        44           Si  tau(  44) = (   0.5625000   0.8125000   0.3125000  )
        45           Si  tau(  45) = (   0.0625000   0.3125000   0.8125000  )
        46           Si  tau(  46) = (   0.5625000   0.3125000   0.8125000  )
        47           Si  tau(  47) = (   0.0625000   0.8125000   0.8125000  )
        48           Si  tau(  48) = (   0.5625000   0.8125000   0.8125000  )
        49           Si  tau(  49) = (   0.3125000   0.0625000   0.3125000  )
        50           Si  tau(  50) = (   0.8125000   0.0625000   0.3125000  )
        51           Si  tau(  51) = (   0.3125000   0.5625000   0.3125000  )
        52           Si  tau(  52) = (   0.8125000   0.5625000   0.3125000  )
        53           Si  tau(  53) = (   0.3125000   0.0625000   0.8125000  )
        54           Si  tau(  54) = (   0.8125000   0.0625000   0.8125000  )
        55           Si  tau(  55) = (   0.3125000   0.5625000   0.8125000  )
        56           Si  tau(  56) = (   0.8125000   0.5625000   0.8125000  )
        57           Si  tau(  57) = (   0.3125000   0.3125000   0.0625000  )
        58           Si  tau(  58) = (   0.8125000   0.3125000   0.0625000  )
        59           Si  tau(  59) = (   0.3125000   0.8125000   0.0625000  )
        60           Si  tau(  60) = (   0.8125000   0.8125000   0.0625000  )
        61           Si  tau(  61) = (   0.3125000   0.3125000   0.5625000  )
        62           Si  tau(  62) = (   0.8125000   0.3125000   0.5625000  )
        63           Si  tau(  63) = (   0.3125000   0.8125000   0.5625000  )
        64           Si  tau(  64) = (   0.8125000   0.8125000   0.5625000  )

     number of k points=     4
                       cart. coord. in units 2pi/alat
        k(    1) = (   0.2500000   0.2500000   0.2500000), wk =   0.5000000
        k(    2) = (  -0.2500000  -0.2500000   0.2500000), wk =   0.5000000
        k(    3) = (  -0.2500000   0.2500000  -0.2500000), wk =   0.5000000
        k(    4) = (   0.2500000  -0.2500000  -0.2500000), wk =   0.5000000

     Dense  grid:   697371 G-vectors     FFT dimensions: ( 120, 120, 120)

     Estimated max dynamical RAM per process >       1.08 GB

     Estimated total dynamical RAM >       4.33 GB

     Initial potential from superposition of free atoms

     starting charge  255.96421, renormalised to  256.00000
     Starting wfc are  256 randomized atomic wfcs
     Checking if some PAW data can be deallocated... 

     total cpu time spent up to now is       41.1 secs

     Self-consistent Calculation

     iteration #  1     ecut=    70.00 Ry     beta= 0.70
     Davidson diagonalization with overlap
     ethr =  1.00E-02,  avg # of iterations =  2.0

     Threshold (ethr) on eigenvalues was too large:
     Diagonalizing with lowered threshold

     Davidson diagonalization with overlap
     ethr =  6.98E-04,  avg # of iterations =  1.0

     total cpu time spent up to now is      156.1 secs

     total energy              =   -2990.46246663 Ry
     Harris-Foulkes estimate   =   -2990.88048221 Ry
     estimated scf accuracy    <       1.76666881 Ry

     iteration #  2     ecut=    70.00 Ry     beta= 0.70
     Davidson diagonalization with overlap
     ethr =  6.90E-04,  avg # of iterations =  1.0

     total cpu time spent up to now is      204.9 secs

     total energy              =   -2990.52628629 Ry
     Harris-Foulkes estimate   =   -2990.53059429 Ry
     estimated scf accuracy    <       0.07824722 Ry

     iteration #  3     ecut=    70.00 Ry     beta= 0.70
     Davidson diagonalization with overlap
     ethr =  3.06E-05,  avg # of iterations =  2.5

     total cpu time spent up to now is      262.4 secs

     total energy              =   -2990.53497947 Ry
     Harris-Foulkes estimate   =   -2990.53564696 Ry
     estimated scf accuracy    <       0.00178887 Ry

     iteration #  4     ecut=    70.00 Ry     beta= 0.70
     Davidson diagonalization with overlap
     ethr =  6.99E-07,  avg # of iterations =  3.2

     total cpu time spent up to now is      344.5 secs

     total energy              =   -2990.53555980 Ry
     Harris-Foulkes estimate   =   -2990.53624270 Ry
     estimated scf accuracy    <       0.00192311 Ry

     iteration #  5     ecut=    70.00 Ry     beta= 0.70
     Davidson diagonalization with overlap
     ethr =  6.99E-07,  avg # of iterations =  2.5

     total cpu time spent up to now is      405.1 secs

     total energy              =   -2990.53588585 Ry
     Harris-Foulkes estimate   =   -2990.53595683 Ry
     estimated scf accuracy    <       0.00020428 Ry

     iteration #  6     ecut=    70.00 Ry     beta= 0.70
     Davidson diagonalization with overlap
     ethr =  7.98E-08,  avg # of iterations =  3.0

     total cpu time spent up to now is      469.3 secs

     total energy              =   -2990.53591865 Ry
     Harris-Foulkes estimate   =   -2990.53594020 Ry
     estimated scf accuracy    <       0.00005993 Ry

     iteration #  7     ecut=    70.00 Ry     beta= 0.70
     Davidson diagonalization with overlap
     ethr =  2.34E-08,  avg # of iterations =  2.0

     total cpu time spent up to now is      529.6 secs

     total energy              =   -2990.53592898 Ry
     Harris-Foulkes estimate   =   -2990.53592956 Ry
     estimated scf accuracy    <       0.00000116 Ry

     iteration #  8     ecut=    70.00 Ry     beta= 0.70
     Davidson diagonalization with overlap
     ethr =  4.55E-10,  avg # of iterations =  3.0

     total cpu time spent up to now is      617.3 secs

     total energy              =   -2990.53592990 Ry
     Harris-Foulkes estimate   =   -2990.53593016 Ry
     estimated scf accuracy    <       0.00000046 Ry

     iteration #  9     ecut=    70.00 Ry     beta= 0.70
     Davidson diagonalization with overlap
     ethr =  1.80E-10,  avg # of iterations =  3.0

     total cpu time spent up to now is      678.3 secs

     total energy              =   -2990.53592985 Ry
     Harris-Foulkes estimate   =   -2990.53593000 Ry
     estimated scf accuracy    <       0.00000019 Ry

     iteration # 10     ecut=    70.00 Ry     beta= 0.70
     Davidson diagonalization with overlap
     ethr =  7.32E-11,  avg # of iterations =  2.0

     total cpu time spent up to now is      737.7 secs

     total energy              =   -2990.53592982 Ry
     Harris-Foulkes estimate   =   -2990.53592988 Ry
     estimated scf accuracy    <       0.00000003 Ry

     iteration # 11     ecut=    70.00 Ry     beta= 0.70
     Davidson diagonalization with overlap
     ethr =  9.98E-12,  avg # of iterations =  3.0

     total cpu time spent up to now is      803.0 secs

     total energy              =   -2990.53592982 Ry
     Harris-Foulkes estimate   =   -2990.53592982 Ry
     estimated scf accuracy    <          3.8E-09 Ry

     iteration # 12     ecut=    70.00 Ry     beta= 0.70
     Davidson diagonalization with overlap
     ethr =  1.50E-12,  avg # of iterations =  3.0

     total cpu time spent up to now is      876.7 secs

     total energy              =   -2990.53592982 Ry
     Harris-Foulkes estimate   =   -2990.53592983 Ry
     estimated scf accuracy    <          1.9E-09 Ry

     iteration # 13     ecut=    70.00 Ry     beta= 0.70
     Davidson diagonalization with overlap
     ethr =  7.33E-13,  avg # of iterations =  3.0

     total cpu time spent up to now is      939.7 secs

     End of self-consistent calculation

          k = 0.2500 0.2500 0.2500 ( 87251 PWs)   bands (ev):

    -5.6250  -5.0991  -5.0965  -5.0938  -4.5994  -4.5967  -4.5940  -4.1621
    -4.0657  -4.0630  -4.0604  -3.6565  -3.6506  -3.6470  -3.6455  -3.6434
    -3.6421  -3.4574  -3.4567  -3.4523  -2.9594  -2.9572  -2.9536  -2.5930
    -2.5903  -2.5856  -2.4301  -2.4234  -2.4210  -2.4194  -2.4166  -2.4158
    -0.8893  -0.8798  -0.8781  -0.8757  -0.8731  -0.8713  -0.7841  -0.7788
    -0.7758  -0.6670  -0.6573  -0.6568  -0.5854  -0.5809  -0.5748   0.1225
     0.2015   0.2094   0.2110   0.2143   0.2171   0.2202   1.0771   1.0844
     1.0873   1.4131   1.4202   1.4218   2.0247   2.0261   2.0291   2.0300
     2.0313   2.0339   2.0866   2.0908   2.0914   2.6352   2.6390   2.6401
     2.7395   2.7412   2.7430   2.7446   2.7475   2.7497   2.7943   2.7996
     2.8033   3.0994   3.1061   3.1074   3.1086   3.1106   3.1124   3.3714
     3.3720   3.3749   3.3821   3.3896   3.3911   3.7285   3.7335   3.7354
     3.7514   3.7529   3.7562   3.8375   3.8407   3.8438   4.1049   4.1075
     4.1113   4.1140   4.1149   4.1163   4.1517   4.1550   4.1586   4.4090
     4.4712   4.4719   4.4768   4.7127   4.7163   4.7200   4.7697   4.7746
     4.7782   4.9325   4.9425   5.2419   5.2458   5.2513   5.7206   5.7321

          k =-0.2500-0.2500 0.2500 ( 87251 PWs)   bands (ev):

    -5.6251  -5.0997  -5.0972  -5.0917  -4.6003  -4.5976  -4.5924  -4.1642
    -4.0673  -4.0646  -4.0592  -3.6524  -3.6509  -3.6480  -3.6473  -3.6430
    -3.6378  -3.4575  -3.4526  -3.4521  -2.9654  -2.9603  -2.9556  -2.5925
    -2.5886  -2.5856  -2.4258  -2.4250  -2.4223  -2.4211  -2.4176  -2.4110
    -0.8856  -0.8842  -0.8800  -0.8785  -0.8766  -0.8679  -0.7853  -0.7821
    -0.7765  -0.6674  -0.6669  -0.6574  -0.5771  -0.5751  -0.5630   0.1300
     0.2012   0.2034   0.2087   0.2103   0.2120   0.2199   1.0836   1.0854
     1.0942   1.4148   1.4162   1.4239   2.0238   2.0263   2.0285   2.0298
     2.0326   2.0333   2.0841   2.0856   2.0915   2.6400   2.6413   2.6449
     2.7355   2.7373   2.7418   2.7441   2.7457   2.7468   2.7903   2.7926
     2.7994   3.1028   3.1041   3.1072   3.1079   3.1092   3.1154   3.3668
     3.3717   3.3722   3.3822   3.3832   3.3901   3.7341   3.7348   3.7401
     3.7571   3.7598   3.7628   3.8343   3.8392   3.8417   4.1123   4.1134
     4.1145   4.1172   4.1205   4.1236   4.1474   4.1532   4.1565   4.4171
     4.4648   4.4704   4.4709   4.7079   4.7140   4.7154   4.7794   4.7808
     4.7912   4.9298   4.9401   5.2343   5.2428   5.2451   5.7160   5.7272

          k =-0.2500 0.2500-0.2500 ( 87251 PWs)   bands (ev):

    -5.6251  -5.0988  -5.0962  -5.0937  -4.5994  -4.5967  -4.5942  -4.1642
    -4.0662  -4.0638  -4.0612  -3.6518  -3.6506  -3.6485  -3.6469  -3.6437
    -3.6379  -3.4575  -3.4526  -3.4521  -2.9636  -2.9600  -2.9578  -2.5925
    -2.5886  -2.5856  -2.4256  -2.4250  -2.4223  -2.4207  -2.4180  -2.4111
    -0.8856  -0.8835  -0.8809  -0.8780  -0.8769  -0.8680  -0.7853  -0.7823
    -0.7763  -0.6673  -0.6669  -0.6574  -0.5777  -0.5713  -0.5663   0.1299
     0.2016   0.2046   0.2071   0.2103   0.2120   0.2199   1.0834   1.0864
     1.0936   1.4147   1.4166   1.4235   2.0237   2.0268   2.0285   2.0291
     2.0323   2.0332   2.0853   2.0861   2.0905   2.6399   2.6413   2.6448
     2.7353   2.7368   2.7419   2.7435   2.7453   2.7469   2.7912   2.7941
     2.7984   3.1029   3.1047   3.1066   3.1078   3.1090   3.1154   3.3669
     3.3718   3.3722   3.3826   3.3831   3.3898   3.7338   3.7358   3.7394
     3.7571   3.7598   3.7628   3.8350   3.8383   3.8417   4.1123   4.1135
     4.1146   4.1170   4.1205   4.1240   4.1485   4.1523   4.1566   4.4171
     4.4648   4.4701   4.4711   4.7086   4.7129   4.7156   4.7791   4.7832
     4.7891   4.9300   4.9401   5.2358   5.2412   5.2453   5.7159   5.7272

          k = 0.2500-0.2500-0.2500 ( 87251 PWs)   bands (ev):

    -5.6250  -5.1011  -5.0953  -5.0930  -4.6012  -4.5956  -4.5933  -4.1621
    -4.0677  -4.0620  -4.0592  -3.6567  -3.6512  -3.6466  -3.6459  -3.6432
    -3.6417  -3.4574  -3.4567  -3.4523  -2.9615  -2.9567  -2.9519  -2.5929
    -2.5903  -2.5856  -2.4302  -2.4239  -2.4206  -2.4194  -2.4166  -2.4157
    -0.8891  -0.8800  -0.8776  -0.8763  -0.8728  -0.8711  -0.7843  -0.7787
    -0.7758  -0.6670  -0.6572  -0.6569  -0.5886  -0.5772  -0.5752   0.1225
     0.2015   0.2094   0.2111   0.2128   0.2183   0.2206   1.0764   1.0854
     1.0869   1.4127   1.4207   1.4217   2.0246   2.0257   2.0287   2.0300
     2.0321   2.0346   2.0856   2.0904   2.0919   2.6353   2.6389   2.6402
     2.7392   2.7408   2.7424   2.7444   2.7491   2.7512   2.7934   2.8002
     2.8022   3.0994   3.1060   3.1072   3.1080   3.1112   3.1127   3.3714
     3.3720   3.3748   3.3817   3.3902   3.3909   3.7278   3.7344   3.7352
     3.7514   3.7529   3.7562   3.8378   3.8397   3.8448   4.1051   4.1076
     4.1110   4.1140   4.1151   4.1161   4.1518   4.1537   4.1594   4.4090
     4.4710   4.4721   4.4768   4.7128   4.7149   4.7216   4.7681   4.7766
     4.7779   4.9325   4.9423   5.2421   5.2440   5.2528   5.7206   5.7321

     highest occupied level (ev):     5.7321

!    total energy              =   -2990.53592983 Ry
     Harris-Foulkes estimate   =   -2990.53592983 Ry
     estimated scf accuracy    <          4.7E-10 Ry

     total all-electron energy =    -37124.671483 Ry

     The total energy is the sum of the following terms:

     one-electron contribution =     178.60402136 Ry
     hartree contribution      =      35.70179662 Ry
     xc contribution           =    -391.44049820 Ry
     ewald contribution        =    -534.00623987 Ry
     one-center paw contrib.   =   -2279.39500973 Ry

     convergence has been achieved in  13 iterations

     Forces acting on atoms (cartesian axes, Ry/au):

     atom    1 type  1   force =    -0.01582417    0.00001006    0.00007726
     atom    2 type  1   force =     0.00006436    0.00000909   -0.00007693
     atom    3 type  1   force =     0.00028570    0.00010962   -0.00022691
     atom    4 type  1   force =     0.00023070    0.00011433    0.00023202
     atom    5 type  1   force =     0.00009653   -0.00000968   -0.00007682
     atom    6 type  1   force =     0.00003512   -0.00001027    0.00007678
     atom    7 type  1   force =    -0.00024329   -0.00011023    0.00022756
     atom    8 type  1   force =     0.00026138   -0.00011360   -0.00023231
     atom    9 type  1   force =    -0.00029736   -0.00011277    0.00022399
     atom   10 type  1   force =     0.00023673    0.00024246    0.00012372
     atom   11 type  1   force =    -0.00029199    0.00033695   -0.00021859
     atom   12 type  1   force =     0.00023770   -0.00022325   -0.00012307
     atom   13 type  1   force =    -0.00048145   -0.00003244    0.00011857
     atom   14 type  1   force =     0.00004227   -0.00008565    0.00001884
     atom   15 type  1   force =    -0.00048586   -0.00019081   -0.00012403
     atom   16 type  1   force =     0.00004132    0.00006646   -0.00001910
     atom   17 type  1   force =     0.00022365   -0.00011039    0.00022751
     atom   18 type  1   force =     0.00029300   -0.00011401   -0.00023234
     atom   19 type  1   force =     0.00006346   -0.00000943   -0.00007609
     atom   20 type  1   force =    -0.01582373   -0.00000888    0.00007622
     atom   21 type  1   force =     0.00025515    0.00010914   -0.00022779
     atom   22 type  1   force =    -0.00023704    0.00011316    0.00023205
     atom   23 type  1   force =     0.00003552    0.00000969    0.00007668
     atom   24 type  1   force =     0.00009665    0.00001002   -0.00007663
     atom   25 type  1   force =     0.00022988    0.00021835   -0.00011930
     atom   26 type  1   force =    -0.00029024   -0.00034613   -0.00022853
     atom   27 type  1   force =     0.00023150   -0.00023744    0.00011888
     atom   28 type  1   force =    -0.00028585    0.00012312    0.00022315
     atom   29 type  1   force =     0.00004194   -0.00006641   -0.00001884
     atom   30 type  1   force =    -0.00048094    0.00018611   -0.00011906
     atom   31 type  1   force =     0.00004136    0.00008605    0.00001908
     atom   32 type  1   force =    -0.00048586    0.00003744    0.00012405
     atom   33 type  1   force =    -0.00003554   -0.00000615    0.00006999
     atom   34 type  1   force =     0.00406747   -0.00245377    0.00251025
     atom   35 type  1   force =     0.00005344   -0.00000054    0.00005447
     atom   36 type  1   force =    -0.00011952    0.00001250    0.00009078
     atom   37 type  1   force =     0.00005352   -0.00000334    0.00005228
     atom   38 type  1   force =    -0.00011941   -0.00001274    0.00008752
     atom   39 type  1   force =    -0.00003495    0.00000657    0.00006823
     atom   40 type  1   force =     0.00418074    0.00267624    0.00273127
     atom   41 type  1   force =     0.00001441   -0.00001164   -0.00006710
     atom   42 type  1   force =     0.00387010   -0.00266712   -0.00275510
     atom   43 type  1   force =     0.00001278    0.00001333   -0.00006477
     atom   44 type  1   force =     0.00375062    0.00244238   -0.00253229
     atom   45 type  1   force =     0.00000380    0.00000431   -0.00005549
     atom   46 type  1   force =     0.00019201   -0.00002237   -0.00006674
     atom   47 type  1   force =     0.00000590   -0.00000217   -0.00005769
     atom   48 type  1   force =     0.00019658    0.00002399   -0.00006554
     atom   49 type  1   force =    -0.00007260    0.00000129    0.00009001
     atom   50 type  1   force =     0.00395660    0.00267779    0.00273281
     atom   51 type  1   force =     0.00383691   -0.00245775    0.00250932
     atom   52 type  1   force =    -0.00007353    0.00000046    0.00008777
     atom   53 type  1   force =     0.00027853   -0.00000055    0.00005169
     atom   54 type  1   force =    -0.00008281    0.00001977    0.00006959
     atom   55 type  1   force =    -0.00008064   -0.00002094    0.00006855
     atom   56 type  1   force =     0.00028339   -0.00000131    0.00005448
     atom   57 type  1   force =    -0.00003332    0.00002717   -0.00006336
     atom   58 type  1   force =    -0.00003236   -0.00000966   -0.00007606
     atom   59 type  1   force =     0.00023921   -0.00001100   -0.00006555
     atom   60 type  1   force =     0.00390669   -0.00267327   -0.00273404
     atom   61 type  1   force =     0.00378896    0.00245077   -0.00251378
     atom   62 type  1   force =     0.00024300    0.00000960   -0.00006627
     atom   63 type  1   force =    -0.00003269    0.00001094   -0.00007673
     atom   64 type  1   force =    -0.00003346   -0.00002345   -0.00006852

     Total force =     0.027127     Total SCF correction =     0.000042


     Computing stress (Cartesian axis) and pressure

          total   stress  (Ry/bohr**3)                   (kbar)     P=    0.12
   0.00000059  -0.00000000   0.00000000          0.09     -0.00      0.00
  -0.00000000   0.00000089   0.00000476         -0.00      0.13      0.70
   0.00000000   0.00000476   0.00000089          0.00      0.70      0.13


     init_run     :     40.17s CPU     41.04s WALL (       1 calls)
     electrons    :    878.10s CPU    898.57s WALL (       1 calls)
     forces       :     11.65s CPU     11.89s WALL (       1 calls)
     stress       :     56.51s CPU     56.77s WALL (       1 calls)

     Called by init_run:
     wfcinit      :     37.10s CPU     37.86s WALL (       1 calls)
     potinit      :      1.07s CPU      1.09s WALL (       1 calls)

     Called by electrons:
     c_bands      :    729.28s CPU    746.60s WALL (      14 calls)
     sum_band     :    132.04s CPU    134.37s WALL (      14 calls)
     v_of_rho     :      5.49s CPU      5.57s WALL (      14 calls)
     newd         :      2.95s CPU      3.73s WALL (      14 calls)
     PAW_pot      :      8.14s CPU      8.14s WALL (      14 calls)
     mix_rho      :      1.23s CPU      1.26s WALL (      14 calls)

     Called by c_bands:
     init_us_2    :      7.74s CPU      7.79s WALL (     124 calls)
     cegterg      :    714.50s CPU    731.78s WALL (      56 calls)

     Called by sum_band:
     sum_band:bec :      0.01s CPU      0.02s WALL (      56 calls)
     addusdens    :      3.58s CPU      4.36s WALL (      14 calls)

     Called by *egterg:
     h_psi        :    636.02s CPU    646.91s WALL (     197 calls)
     s_psi        :     36.44s CPU     36.48s WALL (     197 calls)
     g_psi        :      1.29s CPU      1.28s WALL (     137 calls)
     cdiaghg      :      4.56s CPU      4.55s WALL (     189 calls)

     Called by h_psi:
     h_psi:pot    :    631.98s CPU    642.80s WALL (     197 calls)
     h_psi:calbec :     36.33s CPU     36.33s WALL (     197 calls)
     vloc_psi     :    559.31s CPU    570.12s WALL (     197 calls)
     add_vuspsi   :     36.34s CPU     36.34s WALL (     197 calls)

     General routines
     calbec       :     53.41s CPU     53.42s WALL (     273 calls)
     fft          :      4.59s CPU      4.82s WALL (     209 calls)
     fftw         :    564.67s CPU    576.67s WALL (   48922 calls)

     Parallel routines
     fft_scatt_xy :     95.78s CPU     95.91s WALL (   49131 calls)
     fft_scatt_yz :    104.07s CPU    110.05s WALL (   49131 calls)

     PWSCF        : 16m26.52s CPU    16m48.39s WALL


   This run was terminated on:   3:25:27  25Oct2021            

=------------------------------------------------------------------------------=
   JOB DONE.
=------------------------------------------------------------------------------=
Note: The following floating-point exceptions are signalling: IEEE_UNDERFLOW_FLAG IEEE_DENORMAL
