
     Program PWSCF v.6.2 (svn rev. 13949:13950) starts on 25Oct2021 at 16:44:51 

     This program is part of the open-source Quantum ESPRESSO suite
     for quantum simulation of materials; please cite
         "P. Giannozzi et al., J. Phys.:Condens. Matter 21 395502 (2009);
         "P. Giannozzi et al., J. Phys.:Condens. Matter 29 465901 (2017);
          URL http://www.quantum-espresso.org", 
     in publications or presentations arising from this work. More details at
     http://www.quantum-espresso.org/quote

     Parallel version (MPI), running on     4 processors

     MPI processes distributed on     1 nodes
     R & G space division:  proc/nbgrp/npool/nimage =       4
     Reading input from headeradd_supercell-00103.in

     Current dimensions of program PWSCF are:
     Max number of different atomic species (ntypx) = 10
     Max number of k-points (npk) =  40000
     Max angular momentum in pseudopotentials (lmaxx) =  3
     Message from routine iosys:
     minimal I/O required, wf_collect reset to FALSE
               file Si.pbe-n-kjpaw_psl.0.1.UPF: wavefunction(s)  3S renormalized

     Subspace diagonalization in iterative solution of the eigenvalue problem:
     a serial algorithm will be used


     Parallelization info
     --------------------
     sticks:   dense  smooth     PW     G-vecs:    dense   smooth      PW
     Min        2372    2372    612               174341   174341   22844
     Max        2374    2374    613               174344   174344   22847
     Sum        9493    9493   2449               697371   697371   91383



     bravais-lattice index     =            0
     lattice parameter (alat)  =      20.6591  a.u.
     unit-cell volume          =    8817.2783 (a.u.)^3
     number of atoms/cell      =           64
     number of atomic types    =            1
     number of electrons       =       256.00
     number of Kohn-Sham states=          128
     kinetic-energy cutoff     =      70.0000  Ry
     charge density cutoff     =     280.0000  Ry
     convergence threshold     =      1.0E-09
     mixing beta               =       0.7000
     number of iterations used =            8  plain     mixing
     Exchange-correlation      =  SLA  PW   PBX  PBC ( 1  4  3  4 0 0)

     celldm(1)=  20.659106  celldm(2)=   0.000000  celldm(3)=   0.000000
     celldm(4)=   0.000000  celldm(5)=   0.000000  celldm(6)=   0.000000

     crystal axes: (cart. coord. in units of alat)
               a(1) = (   1.000000   0.000000   0.000000 )  
               a(2) = (   0.000000   1.000000   0.000000 )  
               a(3) = (   0.000000   0.000000   1.000000 )  

     reciprocal axes: (cart. coord. in units 2 pi/alat)
               b(1) = (  1.000000  0.000000  0.000000 )  
               b(2) = (  0.000000  1.000000  0.000000 )  
               b(3) = (  0.000000  0.000000  1.000000 )  


     PseudoPot. # 1 for Si read from file:
     /home/uezono/pseudo/Si.pbe-n-kjpaw_psl.0.1.UPF
     MD5 check sum: 0810ef13ebffcf5dbabd57b297315270
     Pseudo is Projector augmented-wave + core cor, Zval =  4.0
     Generated using "atomic" code by A. Dal Corso  v.5.0.2 svn rev. 9415
     Shape of augmentation charge: PSQ
     Using radial grid of 1141 points,  4 beta functions with: 
                l(1) =   0
                l(2) =   0
                l(3) =   1
                l(4) =   1
     Q(r) pseudized with 0 coefficients 


     atomic species   valence    mass     pseudopotential
        Si             4.00    28.08550     Si( 1.00)

      4 Sym. Ops., with inversion, found ( 3 have fractional translation)



   Cartesian axes

     site n.     atom                  positions (alat units)
         1           Si  tau(   1) = (   0.4404043   0.4375000   0.4375000  )
         2           Si  tau(   2) = (   0.9375000   0.4375000   0.4375000  )
         3           Si  tau(   3) = (   0.4375000   0.9375000   0.4375000  )
         4           Si  tau(   4) = (   0.9375000   0.9375000   0.4375000  )
         5           Si  tau(   5) = (   0.4375000   0.4375000   0.9375000  )
         6           Si  tau(   6) = (   0.9375000   0.4375000   0.9375000  )
         7           Si  tau(   7) = (   0.4375000   0.9375000   0.9375000  )
         8           Si  tau(   8) = (   0.9375000   0.9375000   0.9375000  )
         9           Si  tau(   9) = (   0.4375000   0.1875000   0.1875000  )
        10           Si  tau(  10) = (   0.9375000   0.1875000   0.1875000  )
        11           Si  tau(  11) = (   0.4375000   0.6875000   0.1875000  )
        12           Si  tau(  12) = (   0.9375000   0.6875000   0.1875000  )
        13           Si  tau(  13) = (   0.4375000   0.1875000   0.6875000  )
        14           Si  tau(  14) = (   0.9375000   0.1875000   0.6875000  )
        15           Si  tau(  15) = (   0.4375000   0.6875000   0.6875000  )
        16           Si  tau(  16) = (   0.9375000   0.6875000   0.6875000  )
        17           Si  tau(  17) = (   0.1875000   0.4375000   0.1875000  )
        18           Si  tau(  18) = (   0.6875000   0.4375000   0.1875000  )
        19           Si  tau(  19) = (   0.1875000   0.9375000   0.1875000  )
        20           Si  tau(  20) = (   0.6875000   0.9375000   0.1875000  )
        21           Si  tau(  21) = (   0.1875000   0.4375000   0.6875000  )
        22           Si  tau(  22) = (   0.6875000   0.4375000   0.6875000  )
        23           Si  tau(  23) = (   0.1875000   0.9375000   0.6875000  )
        24           Si  tau(  24) = (   0.6875000   0.9375000   0.6875000  )
        25           Si  tau(  25) = (   0.1875000   0.1875000   0.4375000  )
        26           Si  tau(  26) = (   0.6875000   0.1875000   0.4375000  )
        27           Si  tau(  27) = (   0.1875000   0.6875000   0.4375000  )
        28           Si  tau(  28) = (   0.6875000   0.6875000   0.4375000  )
        29           Si  tau(  29) = (   0.1875000   0.1875000   0.9375000  )
        30           Si  tau(  30) = (   0.6875000   0.1875000   0.9375000  )
        31           Si  tau(  31) = (   0.1875000   0.6875000   0.9375000  )
        32           Si  tau(  32) = (   0.6875000   0.6875000   0.9375000  )
        33           Si  tau(  33) = (   0.0625000   0.0625000   0.0625000  )
        34           Si  tau(  34) = (   0.5625000   0.0625000   0.0625000  )
        35           Si  tau(  35) = (   0.0625000   0.5625000   0.0625000  )
        36           Si  tau(  36) = (   0.5625000   0.5625000   0.0625000  )
        37           Si  tau(  37) = (   0.0625000   0.0625000   0.5625000  )
        38           Si  tau(  38) = (   0.5625000   0.0625000   0.5625000  )
        39           Si  tau(  39) = (   0.0625000   0.5625000   0.5625000  )
        40           Si  tau(  40) = (   0.5625000   0.5625000   0.5625000  )
        41           Si  tau(  41) = (   0.0625000   0.3125000   0.3125000  )
        42           Si  tau(  42) = (   0.5625000   0.3125000   0.3125000  )
        43           Si  tau(  43) = (   0.0625000   0.8125000   0.3125000  )
        44           Si  tau(  44) = (   0.5625000   0.8125000   0.3125000  )
        45           Si  tau(  45) = (   0.0625000   0.3125000   0.8125000  )
        46           Si  tau(  46) = (   0.5625000   0.3125000   0.8125000  )
        47           Si  tau(  47) = (   0.0625000   0.8125000   0.8125000  )
        48           Si  tau(  48) = (   0.5625000   0.8125000   0.8125000  )
        49           Si  tau(  49) = (   0.3125000   0.0625000   0.3125000  )
        50           Si  tau(  50) = (   0.8125000   0.0625000   0.3125000  )
        51           Si  tau(  51) = (   0.3125000   0.5625000   0.3125000  )
        52           Si  tau(  52) = (   0.8095957   0.5625000   0.3125000  )
        53           Si  tau(  53) = (   0.3125000   0.0625000   0.8125000  )
        54           Si  tau(  54) = (   0.8125000   0.0625000   0.8125000  )
        55           Si  tau(  55) = (   0.3125000   0.5625000   0.8125000  )
        56           Si  tau(  56) = (   0.8125000   0.5625000   0.8125000  )
        57           Si  tau(  57) = (   0.3125000   0.3125000   0.0625000  )
        58           Si  tau(  58) = (   0.8125000   0.3125000   0.0625000  )
        59           Si  tau(  59) = (   0.3125000   0.8125000   0.0625000  )
        60           Si  tau(  60) = (   0.8125000   0.8125000   0.0625000  )
        61           Si  tau(  61) = (   0.3125000   0.3125000   0.5625000  )
        62           Si  tau(  62) = (   0.8125000   0.3125000   0.5625000  )
        63           Si  tau(  63) = (   0.3125000   0.8125000   0.5625000  )
        64           Si  tau(  64) = (   0.8125000   0.8125000   0.5625000  )

     number of k points=     3
                       cart. coord. in units 2pi/alat
        k(    1) = (   0.2500000   0.2500000   0.2500000), wk =   1.0000000
        k(    2) = (   0.2500000   0.2500000  -0.2500000), wk =   0.5000000
        k(    3) = (   0.2500000  -0.2500000   0.2500000), wk =   0.5000000

     Dense  grid:   697371 G-vectors     FFT dimensions: ( 120, 120, 120)

     Estimated max dynamical RAM per process >       1.04 GB

     Estimated total dynamical RAM >       4.16 GB

     Initial potential from superposition of free atoms

     starting charge  255.96421, renormalised to  256.00000
     Starting wfc are  256 randomized atomic wfcs
     Checking if some PAW data can be deallocated... 

     total cpu time spent up to now is       32.5 secs

     Self-consistent Calculation

     iteration #  1     ecut=    70.00 Ry     beta= 0.70
     Davidson diagonalization with overlap
     ethr =  1.00E-02,  avg # of iterations =  2.0

     Threshold (ethr) on eigenvalues was too large:
     Diagonalizing with lowered threshold

     Davidson diagonalization with overlap
     ethr =  6.98E-04,  avg # of iterations =  1.0

     total cpu time spent up to now is      121.9 secs

     total energy              =   -2990.46253276 Ry
     Harris-Foulkes estimate   =   -2990.87963046 Ry
     estimated scf accuracy    <       1.76591741 Ry

     iteration #  2     ecut=    70.00 Ry     beta= 0.70
     Davidson diagonalization with overlap
     ethr =  6.90E-04,  avg # of iterations =  1.0

     total cpu time spent up to now is      160.2 secs

     total energy              =   -2990.52628117 Ry
     Harris-Foulkes estimate   =   -2990.53054426 Ry
     estimated scf accuracy    <       0.07833098 Ry

     iteration #  3     ecut=    70.00 Ry     beta= 0.70
     Davidson diagonalization with overlap
     ethr =  3.06E-05,  avg # of iterations =  3.0

     total cpu time spent up to now is      205.4 secs

     total energy              =   -2990.53500761 Ry
     Harris-Foulkes estimate   =   -2990.53564355 Ry
     estimated scf accuracy    <       0.00175235 Ry

     iteration #  4     ecut=    70.00 Ry     beta= 0.70
     Davidson diagonalization with overlap
     ethr =  6.85E-07,  avg # of iterations =  3.0

     total cpu time spent up to now is      266.5 secs

     total energy              =   -2990.53574152 Ry
     Harris-Foulkes estimate   =   -2990.53608795 Ry
     estimated scf accuracy    <       0.00083515 Ry

     iteration #  5     ecut=    70.00 Ry     beta= 0.70
     Davidson diagonalization with overlap
     ethr =  3.26E-07,  avg # of iterations =  2.7

     total cpu time spent up to now is      315.8 secs

     total energy              =   -2990.53590393 Ry
     Harris-Foulkes estimate   =   -2990.53594126 Ry
     estimated scf accuracy    <       0.00009272 Ry

     iteration #  6     ecut=    70.00 Ry     beta= 0.70
     Davidson diagonalization with overlap
     ethr =  3.62E-08,  avg # of iterations =  3.0

     total cpu time spent up to now is      370.6 secs

     total energy              =   -2990.53591630 Ry
     Harris-Foulkes estimate   =   -2990.53594056 Ry
     estimated scf accuracy    <       0.00008312 Ry

     iteration #  7     ecut=    70.00 Ry     beta= 0.70
     Davidson diagonalization with overlap
     ethr =  3.25E-08,  avg # of iterations =  2.0

     total cpu time spent up to now is      416.3 secs

     total energy              =   -2990.53592764 Ry
     Harris-Foulkes estimate   =   -2990.53592809 Ry
     estimated scf accuracy    <       0.00000089 Ry

     iteration #  8     ecut=    70.00 Ry     beta= 0.70
     Davidson diagonalization with overlap
     ethr =  3.49E-10,  avg # of iterations =  3.0

     total cpu time spent up to now is      483.0 secs

     total energy              =   -2990.53592809 Ry
     Harris-Foulkes estimate   =   -2990.53592835 Ry
     estimated scf accuracy    <       0.00000026 Ry

     iteration #  9     ecut=    70.00 Ry     beta= 0.70
     Davidson diagonalization with overlap
     ethr =  1.02E-10,  avg # of iterations =  2.3

     total cpu time spent up to now is      531.3 secs

     total energy              =   -2990.53592806 Ry
     Harris-Foulkes estimate   =   -2990.53592814 Ry
     estimated scf accuracy    <       0.00000004 Ry

     iteration # 10     ecut=    70.00 Ry     beta= 0.70
     Davidson diagonalization with overlap
     ethr =  1.67E-11,  avg # of iterations =  3.0

     total cpu time spent up to now is      584.6 secs

     total energy              =   -2990.53592806 Ry
     Harris-Foulkes estimate   =   -2990.53592807 Ry
     estimated scf accuracy    <          9.0E-09 Ry

     iteration # 11     ecut=    70.00 Ry     beta= 0.70
     Davidson diagonalization with overlap
     ethr =  3.50E-12,  avg # of iterations =  3.0

     total cpu time spent up to now is      635.1 secs

     total energy              =   -2990.53592807 Ry
     Harris-Foulkes estimate   =   -2990.53592807 Ry
     estimated scf accuracy    <          2.6E-09 Ry

     iteration # 12     ecut=    70.00 Ry     beta= 0.70
     Davidson diagonalization with overlap
     ethr =  1.02E-12,  avg # of iterations =  3.0

     total cpu time spent up to now is      688.5 secs

     total energy              =   -2990.53592807 Ry
     Harris-Foulkes estimate   =   -2990.53592807 Ry
     estimated scf accuracy    <          2.0E-09 Ry

     iteration # 13     ecut=    70.00 Ry     beta= 0.70
     Davidson diagonalization with overlap
     ethr =  7.71E-13,  avg # of iterations =  2.0

     total cpu time spent up to now is      734.9 secs

     End of self-consistent calculation

          k = 0.2500 0.2500 0.2500 ( 87251 PWs)   bands (ev):

    -5.6250  -5.1012  -5.0953  -5.0929  -4.6011  -4.5957  -4.5932  -4.1621
    -4.0675  -4.0621  -4.0594  -3.6575  -3.6515  -3.6456  -3.6454  -3.6431
    -3.6422  -3.4572  -3.4568  -3.4522  -2.9602  -2.9568  -2.9530  -2.5931
    -2.5903  -2.5857  -2.4308  -2.4245  -2.4199  -2.4193  -2.4165  -2.4153
    -0.8894  -0.8807  -0.8767  -0.8749  -0.8738  -0.8715  -0.7839  -0.7788
    -0.7755  -0.6671  -0.6574  -0.6571  -0.5865  -0.5799  -0.5748   0.1225
     0.2019   0.2091   0.2125   0.2149   0.2169   0.2183   1.0772   1.0842
     1.0873   1.4131   1.4202   1.4218   2.0242   2.0257   2.0291   2.0294
     2.0322   2.0350   2.0866   2.0904   2.0910   2.6352   2.6390   2.6402
     2.7387   2.7407   2.7426   2.7438   2.7499   2.7513   2.7933   2.8004
     2.8022   3.0996   3.1067   3.1069   3.1086   3.1105   3.1122   3.3717
     3.3717   3.3748   3.3821   3.3899   3.3912   3.7283   3.7350   3.7351
     3.7508   3.7528   3.7559   3.8376   3.8410   3.8434   4.1045   4.1070
     4.1117   4.1135   4.1155   4.1166   4.1517   4.1552   4.1583   4.4089
     4.4711   4.4721   4.4766   4.7127   4.7165   4.7199   4.7700   4.7742
     4.7782   4.9325   4.9427   5.2419   5.2462   5.2507   5.7206   5.7321

          k = 0.2500 0.2500-0.2500 ( 87251 PWs)   bands (ev):

    -5.6251  -5.0989  -5.0978  -5.0921  -4.5997  -4.5983  -4.5923  -4.1640
    -4.0670  -4.0650  -4.0594  -3.6538  -3.6523  -3.6476  -3.6473  -3.6410
    -3.6373  -3.4577  -3.4573  -3.4469  -2.9659  -2.9605  -2.9549  -2.5928
    -2.5922  -2.5820  -2.4272  -2.4260  -2.4215  -2.4213  -2.4154  -2.4113
    -0.8866  -0.8830  -0.8797  -0.8786  -0.8785  -0.8669  -0.7857  -0.7840
    -0.7733  -0.6704  -0.6642  -0.6574  -0.5785  -0.5732  -0.5636   0.1300
     0.2012   0.2020   0.2083   0.2102   0.2108   0.2229   1.0818   1.0853
     1.0961   1.4144   1.4163   1.4241   2.0233   2.0276   2.0286   2.0288
     2.0301   2.0354   2.0849   2.0857   2.0910   2.6400   2.6404   2.6456
     2.7342   2.7375   2.7414   2.7433   2.7464   2.7469   2.7909   2.7946
     2.7982   3.1020   3.1052   3.1063   3.1075   3.1091   3.1164   3.3677
     3.3705   3.3733   3.3819   3.3825   3.3904   3.7333   3.7352   3.7406
     3.7554   3.7583   3.7660   3.8339   3.8389   3.8422   4.1108   4.1137
     4.1138   4.1148   4.1203   4.1282   4.1474   4.1526   4.1573   4.4174
     4.4655   4.4685   4.4718   4.7073   4.7137   4.7159   4.7786   4.7806
     4.7924   4.9299   4.9400   5.2343   5.2421   5.2459   5.7159   5.7272

          k = 0.2500-0.2500 0.2500 ( 87251 PWs)   bands (ev):

    -5.6251  -5.1001  -5.0978  -5.0908  -4.6007  -4.5983  -4.5914  -4.1643
    -4.0676  -4.0650  -4.0584  -3.6509  -3.6497  -3.6495  -3.6469  -3.6464
    -3.6359  -3.4577  -3.4569  -3.4478  -2.9651  -2.9605  -2.9556  -2.5922
    -2.5898  -2.5848  -2.4255  -2.4239  -2.4237  -2.4210  -2.4205  -2.4085
    -0.8848  -0.8842  -0.8813  -0.8783  -0.8781  -0.8665  -0.7840  -0.7803
    -0.7790  -0.6697  -0.6643  -0.6578  -0.5785  -0.5704  -0.5666   0.1301
     0.2037   0.2041   0.2071   0.2096   0.2111   0.2199   1.0818   1.0859
     1.0955   1.4145   1.4166   1.4237   2.0233   2.0261   2.0286   2.0298
     2.0307   2.0358   2.0855   2.0860   2.0895   2.6404   2.6412   2.6446
     2.7357   2.7361   2.7424   2.7448   2.7455   2.7468   2.7898   2.7929
     2.7994   3.1008   3.1054   3.1066   3.1071   3.1098   3.1169   3.3673
     3.3715   3.3727   3.3820   3.3829   3.3900   3.7334   3.7347   3.7408
     3.7555   3.7585   3.7658   3.8351   3.8377   3.8423   4.1114   4.1129
     4.1141   4.1168   4.1194   4.1271   4.1485   4.1513   4.1573   4.4173
     4.4639   4.4702   4.4717   4.7091   4.7122   4.7159   4.7786   4.7826
     4.7904   4.9298   4.9400   5.2362   5.2401   5.2459   5.7160   5.7272

     highest occupied level (ev):     5.7321

!    total energy              =   -2990.53592807 Ry
     Harris-Foulkes estimate   =   -2990.53592807 Ry
     estimated scf accuracy    <          1.4E-10 Ry

     total all-electron energy =    -37124.671481 Ry

     The total energy is the sum of the following terms:

     one-electron contribution =     178.60326221 Ry
     hartree contribution      =      35.70216943 Ry
     xc contribution           =    -391.44050069 Ry
     ewald contribution        =    -534.00584972 Ry
     one-center paw contrib.   =   -2279.39500931 Ry

     convergence has been achieved in  13 iterations

     Forces acting on atoms (cartesian axes, Ry/au):

     atom    1 type  1   force =    -0.01585407    0.00003770   -0.00003770
     atom    2 type  1   force =    -0.00378901    0.00248189   -0.00248189
     atom    3 type  1   force =     0.00002671    0.00002654   -0.00002885
     atom    4 type  1   force =     0.00005200    0.00003726   -0.00005163
     atom    5 type  1   force =     0.00002671    0.00002885   -0.00002654
     atom    6 type  1   force =     0.00005200    0.00005163   -0.00003726
     atom    7 type  1   force =    -0.00045281    0.00003115   -0.00003115
     atom    8 type  1   force =    -0.00022851    0.00002771   -0.00002771
     atom    9 type  1   force =    -0.00055629    0.00008753    0.00014264
     atom   10 type  1   force =     0.00005809   -0.00002828    0.00006051
     atom   11 type  1   force =    -0.00051065    0.00007168   -0.00007168
     atom   12 type  1   force =    -0.00381014   -0.00247217    0.00247217
     atom   13 type  1   force =    -0.00050179   -0.00014067    0.00014067
     atom   14 type  1   force =    -0.00025230   -0.00003739    0.00003739
     atom   15 type  1   force =    -0.00055629   -0.00014264   -0.00008753
     atom   16 type  1   force =     0.00005809   -0.00006051    0.00002828
     atom   17 type  1   force =     0.00024408   -0.00014814    0.00018906
     atom   18 type  1   force =    -0.00369107   -0.00281849   -0.00293695
     atom   19 type  1   force =     0.00001624   -0.00003405   -0.00010374
     atom   20 type  1   force =     0.00010309   -0.00004791    0.00002602
     atom   21 type  1   force =     0.00020561    0.00008330   -0.00025209
     atom   22 type  1   force =     0.00029867    0.00006390    0.00019431
     atom   23 type  1   force =     0.00006412   -0.00002191    0.00004585
     atom   24 type  1   force =    -0.00021360   -0.00001865   -0.00010394
     atom   25 type  1   force =     0.00020561    0.00025209   -0.00008330
     atom   26 type  1   force =     0.00029867   -0.00019431   -0.00006390
     atom   27 type  1   force =     0.00024408   -0.00018906    0.00014814
     atom   28 type  1   force =    -0.00369107    0.00293695    0.00281849
     atom   29 type  1   force =     0.00006412   -0.00004585    0.00002191
     atom   30 type  1   force =    -0.00021360    0.00010394    0.00001865
     atom   31 type  1   force =     0.00001624    0.00010374    0.00003405
     atom   32 type  1   force =     0.00010309   -0.00002602    0.00004791
     atom   33 type  1   force =    -0.00006412    0.00002191   -0.00004585
     atom   34 type  1   force =     0.00021360    0.00001865    0.00010394
     atom   35 type  1   force =    -0.00020561   -0.00008330    0.00025209
     atom   36 type  1   force =    -0.00029867   -0.00006390   -0.00019431
     atom   37 type  1   force =    -0.00001624    0.00003405    0.00010374
     atom   38 type  1   force =    -0.00010309    0.00004791   -0.00002602
     atom   39 type  1   force =    -0.00024408    0.00014814   -0.00018906
     atom   40 type  1   force =     0.00369107    0.00281849    0.00293695
     atom   41 type  1   force =    -0.00024408    0.00018906   -0.00014814
     atom   42 type  1   force =     0.00369107   -0.00293695   -0.00281849
     atom   43 type  1   force =    -0.00020561   -0.00025209    0.00008330
     atom   44 type  1   force =    -0.00029867    0.00019431    0.00006390
     atom   45 type  1   force =    -0.00001624   -0.00010374   -0.00003405
     atom   46 type  1   force =    -0.00010309    0.00002602   -0.00004791
     atom   47 type  1   force =    -0.00006412    0.00004585   -0.00002191
     atom   48 type  1   force =     0.00021360   -0.00010394   -0.00001865
     atom   49 type  1   force =    -0.00005200   -0.00003726    0.00005163
     atom   50 type  1   force =    -0.00002671   -0.00002654    0.00002885
     atom   51 type  1   force =     0.00378901   -0.00248189    0.00248189
     atom   52 type  1   force =     0.01585407   -0.00003770    0.00003770
     atom   53 type  1   force =     0.00022851   -0.00002771    0.00002771
     atom   54 type  1   force =     0.00045281   -0.00003115    0.00003115
     atom   55 type  1   force =    -0.00005200   -0.00005163    0.00003726
     atom   56 type  1   force =    -0.00002671   -0.00002885    0.00002654
     atom   57 type  1   force =    -0.00005809    0.00006051   -0.00002828
     atom   58 type  1   force =     0.00055629    0.00014264    0.00008753
     atom   59 type  1   force =     0.00025230    0.00003739   -0.00003739
     atom   60 type  1   force =     0.00050179    0.00014067   -0.00014067
     atom   61 type  1   force =     0.00381014    0.00247217   -0.00247217
     atom   62 type  1   force =     0.00051065   -0.00007168    0.00007168
     atom   63 type  1   force =    -0.00005809    0.00002828   -0.00006051
     atom   64 type  1   force =     0.00055629   -0.00008753   -0.00014264

     Total force =     0.027117     Total SCF correction =     0.000021


     Computing stress (Cartesian axis) and pressure

          total   stress  (Ry/bohr**3)                   (kbar)     P=    0.12
   0.00000059   0.00000000  -0.00000000          0.09      0.00     -0.00
   0.00000000   0.00000089   0.00000476          0.00      0.13      0.70
  -0.00000000   0.00000476   0.00000089         -0.00      0.70      0.13


     init_run     :     31.68s CPU     32.43s WALL (       1 calls)
     electrons    :    687.43s CPU    702.41s WALL (       1 calls)
     forces       :     10.56s CPU     10.77s WALL (       1 calls)
     stress       :     45.08s CPU     45.32s WALL (       1 calls)

     Called by init_run:
     wfcinit      :     28.55s CPU     29.16s WALL (       1 calls)
     potinit      :      1.06s CPU      1.10s WALL (       1 calls)

     Called by electrons:
     c_bands      :    565.87s CPU    577.92s WALL (      14 calls)
     sum_band     :    104.69s CPU    106.69s WALL (      14 calls)
     v_of_rho     :      5.51s CPU      5.67s WALL (      14 calls)
     newd         :      2.98s CPU      3.79s WALL (      14 calls)
     PAW_pot      :      8.16s CPU      8.16s WALL (      14 calls)
     mix_rho      :      1.25s CPU      1.28s WALL (      14 calls)

     Called by c_bands:
     init_us_2    :      5.86s CPU      5.87s WALL (      93 calls)
     cegterg      :    554.53s CPU    566.53s WALL (      42 calls)

     Called by sum_band:
     sum_band:bec :      0.03s CPU      0.01s WALL (      42 calls)
     addusdens    :      3.65s CPU      4.44s WALL (      14 calls)

     Called by *egterg:
     h_psi        :    494.29s CPU    501.53s WALL (     147 calls)
     s_psi        :     28.03s CPU     28.04s WALL (     147 calls)
     g_psi        :      0.97s CPU      0.97s WALL (     102 calls)
     cdiaghg      :      3.40s CPU      3.40s WALL (     141 calls)

     Called by h_psi:
     h_psi:pot    :    491.22s CPU    498.35s WALL (     147 calls)
     h_psi:calbec :     27.95s CPU     27.93s WALL (     147 calls)
     vloc_psi     :    435.39s CPU    442.51s WALL (     147 calls)
     add_vuspsi   :     27.87s CPU     27.91s WALL (     147 calls)

     General routines
     calbec       :     41.43s CPU     41.46s WALL (     204 calls)
     fft          :      4.83s CPU      5.14s WALL (     209 calls)
     fftw         :    440.52s CPU    447.62s WALL (   36828 calls)

     Parallel routines
     fft_scatt_xy :     75.32s CPU     75.47s WALL (   37037 calls)
     fft_scatt_yz :     79.43s CPU     84.05s WALL (   37037 calls)

     PWSCF        : 12m54.85s CPU    13m11.05s WALL


   This run was terminated on:  16:58: 2  25Oct2021            

=------------------------------------------------------------------------------=
   JOB DONE.
=------------------------------------------------------------------------------=
Note: The following floating-point exceptions are signalling: IEEE_UNDERFLOW_FLAG IEEE_DENORMAL
