
     Program PWSCF v.6.2 (svn rev. 13949:13950) starts on 25Oct2021 at 12:52:43 

     This program is part of the open-source Quantum ESPRESSO suite
     for quantum simulation of materials; please cite
         "P. Giannozzi et al., J. Phys.:Condens. Matter 21 395502 (2009);
         "P. Giannozzi et al., J. Phys.:Condens. Matter 29 465901 (2017);
          URL http://www.quantum-espresso.org", 
     in publications or presentations arising from this work. More details at
     http://www.quantum-espresso.org/quote

     Parallel version (MPI), running on     4 processors

     MPI processes distributed on     1 nodes
     R & G space division:  proc/nbgrp/npool/nimage =       4
     Reading input from headeradd_supercell-00088.in

     Current dimensions of program PWSCF are:
     Max number of different atomic species (ntypx) = 10
     Max number of k-points (npk) =  40000
     Max angular momentum in pseudopotentials (lmaxx) =  3
     Message from routine iosys:
     minimal I/O required, wf_collect reset to FALSE
               file Si.pbe-n-kjpaw_psl.0.1.UPF: wavefunction(s)  3S renormalized

     Subspace diagonalization in iterative solution of the eigenvalue problem:
     a serial algorithm will be used


     Parallelization info
     --------------------
     sticks:   dense  smooth     PW     G-vecs:    dense   smooth      PW
     Min        2372    2372    612               174341   174341   22844
     Max        2374    2374    613               174344   174344   22847
     Sum        9493    9493   2449               697371   697371   91383



     bravais-lattice index     =            0
     lattice parameter (alat)  =      20.6591  a.u.
     unit-cell volume          =    8817.2783 (a.u.)^3
     number of atoms/cell      =           64
     number of atomic types    =            1
     number of electrons       =       256.00
     number of Kohn-Sham states=          128
     kinetic-energy cutoff     =      70.0000  Ry
     charge density cutoff     =     280.0000  Ry
     convergence threshold     =      1.0E-09
     mixing beta               =       0.7000
     number of iterations used =            8  plain     mixing
     Exchange-correlation      =  SLA  PW   PBX  PBC ( 1  4  3  4 0 0)

     celldm(1)=  20.659106  celldm(2)=   0.000000  celldm(3)=   0.000000
     celldm(4)=   0.000000  celldm(5)=   0.000000  celldm(6)=   0.000000

     crystal axes: (cart. coord. in units of alat)
               a(1) = (   1.000000   0.000000   0.000000 )  
               a(2) = (   0.000000   1.000000   0.000000 )  
               a(3) = (   0.000000   0.000000   1.000000 )  

     reciprocal axes: (cart. coord. in units 2 pi/alat)
               b(1) = (  1.000000  0.000000  0.000000 )  
               b(2) = (  0.000000  1.000000  0.000000 )  
               b(3) = (  0.000000  0.000000  1.000000 )  


     PseudoPot. # 1 for Si read from file:
     /home/uezono/pseudo/Si.pbe-n-kjpaw_psl.0.1.UPF
     MD5 check sum: 0810ef13ebffcf5dbabd57b297315270
     Pseudo is Projector augmented-wave + core cor, Zval =  4.0
     Generated using "atomic" code by A. Dal Corso  v.5.0.2 svn rev. 9415
     Shape of augmentation charge: PSQ
     Using radial grid of 1141 points,  4 beta functions with: 
                l(1) =   0
                l(2) =   0
                l(3) =   1
                l(4) =   1
     Q(r) pseudized with 0 coefficients 


     atomic species   valence    mass     pseudopotential
        Si             4.00    28.08550     Si( 1.00)

     No symmetry found



   Cartesian axes

     site n.     atom                  positions (alat units)
         1           Si  tau(   1) = (   0.4404043   0.4375000   0.4375000  )
         2           Si  tau(   2) = (   0.9375000   0.4375000   0.4375000  )
         3           Si  tau(   3) = (   0.4375000   0.9375000   0.4375000  )
         4           Si  tau(   4) = (   0.9375000   0.9375000   0.4375000  )
         5           Si  tau(   5) = (   0.4375000   0.4375000   0.9375000  )
         6           Si  tau(   6) = (   0.9375000   0.4375000   0.9375000  )
         7           Si  tau(   7) = (   0.4375000   0.9375000   0.9375000  )
         8           Si  tau(   8) = (   0.9375000   0.9375000   0.9375000  )
         9           Si  tau(   9) = (   0.4375000   0.1875000   0.1875000  )
        10           Si  tau(  10) = (   0.9375000   0.1875000   0.1875000  )
        11           Si  tau(  11) = (   0.4375000   0.6875000   0.1875000  )
        12           Si  tau(  12) = (   0.9375000   0.6875000   0.1875000  )
        13           Si  tau(  13) = (   0.4375000   0.1875000   0.6875000  )
        14           Si  tau(  14) = (   0.9375000   0.1875000   0.6875000  )
        15           Si  tau(  15) = (   0.4375000   0.6875000   0.6875000  )
        16           Si  tau(  16) = (   0.9375000   0.6875000   0.6875000  )
        17           Si  tau(  17) = (   0.1875000   0.4375000   0.1875000  )
        18           Si  tau(  18) = (   0.6875000   0.4375000   0.1875000  )
        19           Si  tau(  19) = (   0.1875000   0.9375000   0.1875000  )
        20           Si  tau(  20) = (   0.6875000   0.9375000   0.1875000  )
        21           Si  tau(  21) = (   0.1875000   0.4375000   0.6875000  )
        22           Si  tau(  22) = (   0.6875000   0.4375000   0.6875000  )
        23           Si  tau(  23) = (   0.1875000   0.9375000   0.6875000  )
        24           Si  tau(  24) = (   0.6875000   0.9375000   0.6875000  )
        25           Si  tau(  25) = (   0.1875000   0.1875000   0.4375000  )
        26           Si  tau(  26) = (   0.6875000   0.1875000   0.4375000  )
        27           Si  tau(  27) = (   0.1875000   0.6875000   0.4375000  )
        28           Si  tau(  28) = (   0.6875000   0.6875000   0.4375000  )
        29           Si  tau(  29) = (   0.1875000   0.1875000   0.9375000  )
        30           Si  tau(  30) = (   0.6875000   0.1875000   0.9375000  )
        31           Si  tau(  31) = (   0.1875000   0.6875000   0.9375000  )
        32           Si  tau(  32) = (   0.6875000   0.6875000   0.9375000  )
        33           Si  tau(  33) = (   0.0625000   0.0625000   0.0625000  )
        34           Si  tau(  34) = (   0.5625000   0.0625000   0.0625000  )
        35           Si  tau(  35) = (   0.0625000   0.5625000   0.0625000  )
        36           Si  tau(  36) = (   0.5625000   0.5625000   0.0625000  )
        37           Si  tau(  37) = (   0.0625000   0.0625000   0.5625000  )
        38           Si  tau(  38) = (   0.5625000   0.0625000   0.5625000  )
        39           Si  tau(  39) = (   0.0625000   0.5625000   0.5625000  )
        40           Si  tau(  40) = (   0.5625000   0.5625000   0.5625000  )
        41           Si  tau(  41) = (   0.0625000   0.3125000   0.3125000  )
        42           Si  tau(  42) = (   0.5625000   0.3125000   0.3125000  )
        43           Si  tau(  43) = (   0.0625000   0.8125000   0.3125000  )
        44           Si  tau(  44) = (   0.5625000   0.8125000   0.3125000  )
        45           Si  tau(  45) = (   0.0625000   0.3125000   0.8125000  )
        46           Si  tau(  46) = (   0.5625000   0.3125000   0.8125000  )
        47           Si  tau(  47) = (   0.0625000   0.8125000   0.8125000  )
        48           Si  tau(  48) = (   0.5625000   0.8125000   0.8125000  )
        49           Si  tau(  49) = (   0.3125000   0.0625000   0.3154043  )
        50           Si  tau(  50) = (   0.8125000   0.0625000   0.3125000  )
        51           Si  tau(  51) = (   0.3125000   0.5625000   0.3125000  )
        52           Si  tau(  52) = (   0.8125000   0.5625000   0.3125000  )
        53           Si  tau(  53) = (   0.3125000   0.0625000   0.8125000  )
        54           Si  tau(  54) = (   0.8125000   0.0625000   0.8125000  )
        55           Si  tau(  55) = (   0.3125000   0.5625000   0.8125000  )
        56           Si  tau(  56) = (   0.8125000   0.5625000   0.8125000  )
        57           Si  tau(  57) = (   0.3125000   0.3125000   0.0625000  )
        58           Si  tau(  58) = (   0.8125000   0.3125000   0.0625000  )
        59           Si  tau(  59) = (   0.3125000   0.8125000   0.0625000  )
        60           Si  tau(  60) = (   0.8125000   0.8125000   0.0625000  )
        61           Si  tau(  61) = (   0.3125000   0.3125000   0.5625000  )
        62           Si  tau(  62) = (   0.8125000   0.3125000   0.5625000  )
        63           Si  tau(  63) = (   0.3125000   0.8125000   0.5625000  )
        64           Si  tau(  64) = (   0.8125000   0.8125000   0.5625000  )

     number of k points=     4
                       cart. coord. in units 2pi/alat
        k(    1) = (   0.2500000   0.2500000   0.2500000), wk =   0.5000000
        k(    2) = (  -0.2500000  -0.2500000   0.2500000), wk =   0.5000000
        k(    3) = (  -0.2500000   0.2500000  -0.2500000), wk =   0.5000000
        k(    4) = (   0.2500000  -0.2500000  -0.2500000), wk =   0.5000000

     Dense  grid:   697371 G-vectors     FFT dimensions: ( 120, 120, 120)

     Estimated max dynamical RAM per process >       1.08 GB

     Estimated total dynamical RAM >       4.33 GB

     Initial potential from superposition of free atoms

     starting charge  255.96421, renormalised to  256.00000
     Starting wfc are  256 randomized atomic wfcs
     Checking if some PAW data can be deallocated... 

     total cpu time spent up to now is       41.1 secs

     Self-consistent Calculation

     iteration #  1     ecut=    70.00 Ry     beta= 0.70
     Davidson diagonalization with overlap
     ethr =  1.00E-02,  avg # of iterations =  2.0

     Threshold (ethr) on eigenvalues was too large:
     Diagonalizing with lowered threshold

     Davidson diagonalization with overlap
     ethr =  6.98E-04,  avg # of iterations =  1.0

     total cpu time spent up to now is      155.8 secs

     total energy              =   -2990.46248237 Ry
     Harris-Foulkes estimate   =   -2990.88044144 Ry
     estimated scf accuracy    <       1.76640553 Ry

     iteration #  2     ecut=    70.00 Ry     beta= 0.70
     Davidson diagonalization with overlap
     ethr =  6.90E-04,  avg # of iterations =  1.0

     total cpu time spent up to now is      204.7 secs

     total energy              =   -2990.52628117 Ry
     Harris-Foulkes estimate   =   -2990.53060319 Ry
     estimated scf accuracy    <       0.07829044 Ry

     iteration #  3     ecut=    70.00 Ry     beta= 0.70
     Davidson diagonalization with overlap
     ethr =  3.06E-05,  avg # of iterations =  2.5

     total cpu time spent up to now is      262.2 secs

     total energy              =   -2990.53495937 Ry
     Harris-Foulkes estimate   =   -2990.53565010 Ry
     estimated scf accuracy    <       0.00181285 Ry

     iteration #  4     ecut=    70.00 Ry     beta= 0.70
     Davidson diagonalization with overlap
     ethr =  7.08E-07,  avg # of iterations =  4.0

     total cpu time spent up to now is      345.7 secs

     total energy              =   -2990.53549073 Ry
     Harris-Foulkes estimate   =   -2990.53630867 Ry
     estimated scf accuracy    <       0.00232602 Ry

     iteration #  5     ecut=    70.00 Ry     beta= 0.70
     Davidson diagonalization with overlap
     ethr =  7.08E-07,  avg # of iterations =  3.0

     total cpu time spent up to now is      407.7 secs

     total energy              =   -2990.53588251 Ry
     Harris-Foulkes estimate   =   -2990.53596075 Ry
     estimated scf accuracy    <       0.00022707 Ry

     iteration #  6     ecut=    70.00 Ry     beta= 0.70
     Davidson diagonalization with overlap
     ethr =  8.87E-08,  avg # of iterations =  3.0

     total cpu time spent up to now is      471.6 secs

     total energy              =   -2990.53591846 Ry
     Harris-Foulkes estimate   =   -2990.53594132 Ry
     estimated scf accuracy    <       0.00006368 Ry

     iteration #  7     ecut=    70.00 Ry     beta= 0.70
     Davidson diagonalization with overlap
     ethr =  2.49E-08,  avg # of iterations =  2.0

     total cpu time spent up to now is      531.8 secs

     total energy              =   -2990.53592945 Ry
     Harris-Foulkes estimate   =   -2990.53593010 Ry
     estimated scf accuracy    <       0.00000126 Ry

     iteration #  8     ecut=    70.00 Ry     beta= 0.70
     Davidson diagonalization with overlap
     ethr =  4.94E-10,  avg # of iterations =  3.0

     total cpu time spent up to now is      619.5 secs

     total energy              =   -2990.53593042 Ry
     Harris-Foulkes estimate   =   -2990.53593067 Ry
     estimated scf accuracy    <       0.00000040 Ry

     iteration #  9     ecut=    70.00 Ry     beta= 0.70
     Davidson diagonalization with overlap
     ethr =  1.57E-10,  avg # of iterations =  3.0

     total cpu time spent up to now is      681.6 secs

     total energy              =   -2990.53593037 Ry
     Harris-Foulkes estimate   =   -2990.53593051 Ry
     estimated scf accuracy    <       0.00000021 Ry

     iteration # 10     ecut=    70.00 Ry     beta= 0.70
     Davidson diagonalization with overlap
     ethr =  8.16E-11,  avg # of iterations =  2.0

     total cpu time spent up to now is      740.9 secs

     total energy              =   -2990.53593034 Ry
     Harris-Foulkes estimate   =   -2990.53593040 Ry
     estimated scf accuracy    <       0.00000003 Ry

     iteration # 11     ecut=    70.00 Ry     beta= 0.70
     Davidson diagonalization with overlap
     ethr =  1.09E-11,  avg # of iterations =  3.0

     total cpu time spent up to now is      805.5 secs

     total energy              =   -2990.53593035 Ry
     Harris-Foulkes estimate   =   -2990.53593034 Ry
     estimated scf accuracy    <          3.6E-09 Ry

     iteration # 12     ecut=    70.00 Ry     beta= 0.70
     Davidson diagonalization with overlap
     ethr =  1.41E-12,  avg # of iterations =  3.0

     total cpu time spent up to now is      879.2 secs

     total energy              =   -2990.53593035 Ry
     Harris-Foulkes estimate   =   -2990.53593035 Ry
     estimated scf accuracy    <          1.6E-09 Ry

     iteration # 13     ecut=    70.00 Ry     beta= 0.70
     Davidson diagonalization with overlap
     ethr =  6.34E-13,  avg # of iterations =  3.0

     total cpu time spent up to now is      943.8 secs

     End of self-consistent calculation

          k = 0.2500 0.2500 0.2500 ( 87251 PWs)   bands (ev):

    -5.6250  -5.0973  -5.0964  -5.0953  -4.5977  -4.5967  -4.5958  -4.1632
    -4.0648  -4.0633  -4.0618  -3.6529  -3.6485  -3.6472  -3.6469  -3.6455
    -3.6414  -3.4590  -3.4549  -3.4505  -2.9611  -2.9585  -2.9561  -2.5930
    -2.5890  -2.5856  -2.4278  -2.4225  -2.4216  -2.4201  -2.4192  -2.4135
    -0.8876  -0.8805  -0.8786  -0.8775  -0.8763  -0.8695  -0.7837  -0.7809
    -0.7767  -0.6675  -0.6622  -0.6569  -0.5811  -0.5762  -0.5709   0.1263
     0.2024   0.2094   0.2106   0.2108   0.2121   0.2192   1.0796   1.0853
     1.0911   1.4140   1.4184   1.4225   2.0241   2.0277   2.0290   2.0293
     2.0307   2.0342   2.0857   2.0882   2.0906   2.6378   2.6401   2.6424
     2.7376   2.7393   2.7430   2.7435   2.7466   2.7487   2.7921   2.7965
     2.8008   3.1029   3.1050   3.1072   3.1079   3.1101   3.1123   3.3694
     3.3718   3.3731   3.3825   3.3869   3.3901   3.7329   3.7347   3.7364
     3.7521   3.7563   3.7609   3.8368   3.8395   3.8423   4.1057   4.1131
     4.1141   4.1144   4.1152   4.1226   4.1506   4.1536   4.1571   4.4129
     4.4686   4.4713   4.4730   4.7114   4.7144   4.7175   4.7741   4.7786
     4.7841   4.9319   4.9406   5.2395   5.2434   5.2478   5.7191   5.7289

          k =-0.2500-0.2500 0.2500 ( 87251 PWs)   bands (ev):

    -5.6251  -5.0993  -5.0960  -5.0933  -4.5998  -4.5966  -4.5939  -4.1642
    -4.0671  -4.0634  -4.0607  -3.6524  -3.6504  -3.6492  -3.6473  -3.6438
    -3.6363  -3.4577  -3.4548  -3.4497  -2.9645  -2.9603  -2.9566  -2.5923
    -2.5891  -2.5853  -2.4260  -2.4244  -2.4231  -2.4214  -2.4175  -2.4104
    -0.8850  -0.8834  -0.8804  -0.8795  -0.8735  -0.8710  -0.7848  -0.7809
    -0.7782  -0.6680  -0.6623  -0.6613  -0.5770  -0.5716  -0.5668   0.1300
     0.2014   0.2052   0.2080   0.2089   0.2151   0.2169   1.0830   1.0873
     1.0929   1.4153   1.4184   1.4212   2.0246   2.0272   2.0289   2.0301
     2.0305   2.0328   2.0848   2.0863   2.0903   2.6401   2.6424   2.6437
     2.7363   2.7388   2.7408   2.7438   2.7445   2.7466   2.7909   2.7936
     2.7983   3.1030   3.1056   3.1065   3.1075   3.1103   3.1135   3.3690
     3.3698   3.3725   3.3824   3.3851   3.3876   3.7339   3.7367   3.7387
     3.7561   3.7599   3.7633   3.8352   3.8387   3.8412   4.1125   4.1132
     4.1155   4.1159   4.1201   4.1245   4.1485   4.1527   4.1563   4.4169
     4.4668   4.4679   4.4713   4.7090   4.7131   4.7153   4.7791   4.7836
     4.7885   4.9324   4.9376   5.2359   5.2417   5.2448   5.7187   5.7244

          k =-0.2500 0.2500-0.2500 ( 87251 PWs)   bands (ev):

    -5.6250  -5.0989  -5.0963  -5.0937  -4.5993  -4.5968  -4.5941  -4.1632
    -4.0659  -4.0633  -4.0609  -3.6559  -3.6491  -3.6471  -3.6469  -3.6449
    -3.6385  -3.4589  -3.4548  -3.4505  -2.9612  -2.9586  -2.9559  -2.5930
    -2.5892  -2.5856  -2.4284  -2.4230  -2.4212  -2.4204  -2.4186  -2.4129
    -0.8853  -0.8815  -0.8787  -0.8778  -0.8751  -0.8713  -0.7839  -0.7806
    -0.7769  -0.6675  -0.6622  -0.6570  -0.5836  -0.5762  -0.5683   0.1263
     0.2035   0.2066   0.2104   0.2109   0.2150   0.2181   1.0790   1.0853
     1.0917   1.4140   1.4184   1.4225   2.0247   2.0267   2.0288   2.0294
     2.0315   2.0337   2.0859   2.0881   2.0907   2.6383   2.6401   2.6419
     2.7380   2.7401   2.7424   2.7440   2.7461   2.7479   2.7931   2.7967
     2.7999   3.1009   3.1059   3.1075   3.1076   3.1092   3.1141   3.3692
     3.3720   3.3744   3.3822   3.3861   3.3898   3.7310   3.7347   3.7378
     3.7538   3.7570   3.7589   3.8373   3.8396   3.8418   4.1064   4.1120
     4.1142   4.1143   4.1165   4.1217   4.1511   4.1537   4.1563   4.4133
     4.4677   4.4708   4.4743   4.7120   4.7144   4.7169   4.7727   4.7786
     4.7855   4.9318   4.9405   5.2404   5.2436   5.2467   5.7190   5.7289

          k = 0.2500-0.2500-0.2500 ( 87251 PWs)   bands (ev):

    -5.6250  -5.0993  -5.0967  -5.0933  -4.5995  -4.5968  -4.5937  -4.1621
    -4.0661  -4.0632  -4.0597  -3.6584  -3.6502  -3.6466  -3.6448  -3.6437
    -3.6416  -3.4595  -3.4549  -3.4520  -2.9605  -2.9568  -2.9528  -2.5936
    -2.5893  -2.5860  -2.4308  -2.4240  -2.4202  -2.4185  -2.4172  -2.4156
    -0.8862  -0.8830  -0.8769  -0.8759  -0.8732  -0.8717  -0.7827  -0.7800
    -0.7760  -0.6631  -0.6619  -0.6562  -0.5853  -0.5806  -0.5754   0.1226
     0.2046   0.2064   0.2125   0.2134   0.2163   0.2204   1.0778   1.0833
     1.0877   1.4156   1.4182   1.4213   2.0252   2.0278   2.0282   2.0296
     2.0312   2.0335   2.0868   2.0900   2.0915   2.6366   2.6377   2.6401
     2.7399   2.7418   2.7427   2.7452   2.7475   2.7495   2.7947   2.7993
     2.8023   3.1015   3.1047   3.1077   3.1086   3.1096   3.1122   3.3711
     3.3733   3.3742   3.3849   3.3872   3.3905   3.7300   3.7318   3.7358
     3.7498   3.7537   3.7567   3.8381   3.8402   3.8438   4.1038   4.1085
     4.1125   4.1130   4.1152   4.1160   4.1523   4.1544   4.1586   4.4088
     4.4711   4.4740   4.4748   4.7133   4.7157   4.7204   4.7698   4.7743
     4.7781   4.9350   4.9399   5.2423   5.2452   5.2514   5.7235   5.7292

     highest occupied level (ev):     5.7292

!    total energy              =   -2990.53593035 Ry
     Harris-Foulkes estimate   =   -2990.53593035 Ry
     estimated scf accuracy    <          6.2E-10 Ry

     total all-electron energy =    -37124.671484 Ry

     The total energy is the sum of the following terms:

     one-electron contribution =     178.60409895 Ry
     hartree contribution      =      35.70176241 Ry
     xc contribution           =    -391.44049966 Ry
     ewald contribution        =    -534.00628167 Ry
     one-center paw contrib.   =   -2279.39501038 Ry

     convergence has been achieved in  13 iterations

     Forces acting on atoms (cartesian axes, Ry/au):

     atom    1 type  1   force =    -0.01581424   -0.00003922   -0.00006366
     atom    2 type  1   force =     0.00004940   -0.00002819    0.00025565
     atom    3 type  1   force =     0.00275871   -0.00270393    0.00392843
     atom    4 type  1   force =     0.00003144   -0.00004989   -0.00006089
     atom    5 type  1   force =     0.00008157   -0.00002533    0.00002622
     atom    6 type  1   force =     0.00002357   -0.00003108   -0.00002168
     atom    7 type  1   force =    -0.00043664   -0.00003798   -0.00001277
     atom    8 type  1   force =     0.00004852   -0.00002666    0.00002546
     atom    9 type  1   force =    -0.00301150   -0.00236787    0.00392637
     atom   10 type  1   force =    -0.00003831   -0.00004130   -0.00004900
     atom   11 type  1   force =    -0.00057455    0.00007197   -0.00016832
     atom   12 type  1   force =    -0.00002840   -0.00001903    0.00024283
     atom   13 type  1   force =    -0.00056148   -0.00014757    0.00009634
     atom   14 type  1   force =    -0.00002643   -0.00003781    0.00003719
     atom   15 type  1   force =    -0.00055613   -0.00014054   -0.00008610
     atom   16 type  1   force =    -0.00003237   -0.00004111   -0.00003132
     atom   17 type  1   force =     0.00028250   -0.00007297    0.00016870
     atom   18 type  1   force =     0.00026627   -0.00008543    0.00001944
     atom   19 type  1   force =     0.00252366    0.00247255    0.00373506
     atom   20 type  1   force =     0.00007969    0.00004179    0.00001774
     atom   21 type  1   force =     0.00025938    0.00013543   -0.00019944
     atom   22 type  1   force =     0.00026931    0.00014479    0.00021078
     atom   23 type  1   force =     0.00008008    0.00004810    0.00006387
     atom   24 type  1   force =     0.00006885    0.00003869   -0.00004840
     atom   25 type  1   force =    -0.00247349    0.00293266    0.00381958
     atom   26 type  1   force =     0.00019939   -0.00018220   -0.00017474
     atom   27 type  1   force =     0.00018070   -0.00018892    0.00004860
     atom   28 type  1   force =     0.00021031    0.00025976    0.00036909
     atom   29 type  1   force =     0.00000395   -0.00003832   -0.00002242
     atom   30 type  1   force =     0.00001757    0.00010389    0.00001619
     atom   31 type  1   force =     0.00001514    0.00010152    0.00003551
     atom   32 type  1   force =     0.00001173   -0.00004566   -0.00001201
     atom   33 type  1   force =     0.00020549    0.00014153    0.00026268
     atom   34 type  1   force =     0.00002874   -0.00008195    0.00025905
     atom   35 type  1   force =    -0.00005212    0.00003534    0.00006712
     atom   36 type  1   force =     0.00001699    0.00004012    0.00008148
     atom   37 type  1   force =    -0.00020709    0.00013943    0.00026403
     atom   38 type  1   force =     0.00017208   -0.00007468    0.00028793
     atom   39 type  1   force =     0.00006205    0.00004667    0.00008034
     atom   40 type  1   force =     0.00385260    0.00269454    0.00274670
     atom   41 type  1   force =     0.00010045   -0.00015171   -0.00056658
     atom   42 type  1   force =     0.00403709   -0.00259380   -0.00322657
     atom   43 type  1   force =    -0.00008402   -0.00013441   -0.00055044
     atom   44 type  1   force =    -0.00017413    0.00007471   -0.00057886
     atom   45 type  1   force =     0.00003476   -0.00003559   -0.00002604
     atom   46 type  1   force =    -0.00005058   -0.00004030   -0.00003839
     atom   47 type  1   force =    -0.00003209   -0.00004088   -0.00003085
     atom   48 type  1   force =     0.00024676   -0.00001858   -0.00002901
     atom   49 type  1   force =    -0.00005658   -0.00003671   -0.01581646
     atom   50 type  1   force =     0.00002776   -0.00002591    0.00008373
     atom   51 type  1   force =     0.00381145   -0.00248253    0.00253632
     atom   52 type  1   force =    -0.00001334   -0.00003849   -0.00043702
     atom   53 type  1   force =     0.00025253   -0.00002717    0.00004928
     atom   54 type  1   force =    -0.00002198   -0.00003055    0.00002348
     atom   55 type  1   force =    -0.00005894   -0.00005203    0.00003072
     atom   56 type  1   force =     0.00002795   -0.00002963    0.00005053
     atom   57 type  1   force =    -0.00016859   -0.00017556    0.00019416
     atom   58 type  1   force =     0.00001833    0.00010674    0.00001594
     atom   59 type  1   force =     0.00036266    0.00025517    0.00020369
     atom   60 type  1   force =    -0.00001275   -0.00004699    0.00001150
     atom   61 type  1   force =     0.00369626    0.00271346   -0.00224421
     atom   62 type  1   force =    -0.00002218   -0.00003780    0.00000423
     atom   63 type  1   force =     0.00005516   -0.00019474    0.00018590
     atom   64 type  1   force =     0.00003710    0.00010218    0.00001334

     Total force =     0.027155     Total SCF correction =     0.000049


     Computing stress (Cartesian axis) and pressure

          total   stress  (Ry/bohr**3)                   (kbar)     P=    0.12
   0.00000074  -0.00000238   0.00000000          0.11     -0.35      0.00
  -0.00000238   0.00000089   0.00000238         -0.35      0.13      0.35
   0.00000000   0.00000238   0.00000074          0.00      0.35      0.11


     init_run     :     40.18s CPU     41.02s WALL (       1 calls)
     electrons    :    881.93s CPU    902.63s WALL (       1 calls)
     forces       :     11.71s CPU     11.93s WALL (       1 calls)
     stress       :     56.70s CPU     56.97s WALL (       1 calls)

     Called by init_run:
     wfcinit      :     37.08s CPU     37.82s WALL (       1 calls)
     potinit      :      1.09s CPU      1.10s WALL (       1 calls)

     Called by electrons:
     c_bands      :    732.74s CPU    749.98s WALL (      14 calls)
     sum_band     :    132.53s CPU    135.09s WALL (      14 calls)
     v_of_rho     :      5.43s CPU      5.57s WALL (      14 calls)
     newd         :      2.94s CPU      3.73s WALL (      14 calls)
     PAW_pot      :      8.12s CPU      8.12s WALL (      14 calls)
     mix_rho      :      1.22s CPU      1.25s WALL (      14 calls)

     Called by c_bands:
     init_us_2    :      7.68s CPU      7.70s WALL (     124 calls)
     cegterg      :    717.91s CPU    735.08s WALL (      56 calls)

     Called by sum_band:
     sum_band:bec :      0.02s CPU      0.02s WALL (      56 calls)
     addusdens    :      3.57s CPU      4.35s WALL (      14 calls)

     Called by *egterg:
     h_psi        :    637.74s CPU    648.66s WALL (     202 calls)
     s_psi        :     36.86s CPU     36.81s WALL (     202 calls)
     g_psi        :      1.28s CPU      1.27s WALL (     142 calls)
     cdiaghg      :      4.72s CPU      4.70s WALL (     194 calls)

     Called by h_psi:
     h_psi:pot    :    633.70s CPU    644.56s WALL (     202 calls)
     h_psi:calbec :     36.52s CPU     36.55s WALL (     202 calls)
     vloc_psi     :    560.58s CPU    571.37s WALL (     202 calls)
     add_vuspsi   :     36.59s CPU     36.63s WALL (     202 calls)

     General routines
     calbec       :     53.75s CPU     53.80s WALL (     278 calls)
     fft          :      4.60s CPU      4.89s WALL (     209 calls)
     fftw         :    567.46s CPU    579.21s WALL (   49096 calls)

     Parallel routines
     fft_scatt_xy :     95.47s CPU     95.89s WALL (   49305 calls)
     fft_scatt_yz :    104.50s CPU    111.52s WALL (   49305 calls)

     PWSCF        : 16m30.62s CPU    16m52.68s WALL


   This run was terminated on:  13: 9:36  25Oct2021            

=------------------------------------------------------------------------------=
   JOB DONE.
=------------------------------------------------------------------------------=
Note: The following floating-point exceptions are signalling: IEEE_UNDERFLOW_FLAG IEEE_DENORMAL
