
     Program PWSCF v.6.2 (svn rev. 13949:13950) starts on 25Oct2021 at 12: 3:19 

     This program is part of the open-source Quantum ESPRESSO suite
     for quantum simulation of materials; please cite
         "P. Giannozzi et al., J. Phys.:Condens. Matter 21 395502 (2009);
         "P. Giannozzi et al., J. Phys.:Condens. Matter 29 465901 (2017);
          URL http://www.quantum-espresso.org", 
     in publications or presentations arising from this work. More details at
     http://www.quantum-espresso.org/quote

     Parallel version (MPI), running on     4 processors

     MPI processes distributed on     1 nodes
     R & G space division:  proc/nbgrp/npool/nimage =       4
     Reading input from headeradd_supercell-00085.in

     Current dimensions of program PWSCF are:
     Max number of different atomic species (ntypx) = 10
     Max number of k-points (npk) =  40000
     Max angular momentum in pseudopotentials (lmaxx) =  3
     Message from routine iosys:
     minimal I/O required, wf_collect reset to FALSE
               file Si.pbe-n-kjpaw_psl.0.1.UPF: wavefunction(s)  3S renormalized

     Subspace diagonalization in iterative solution of the eigenvalue problem:
     a serial algorithm will be used


     Parallelization info
     --------------------
     sticks:   dense  smooth     PW     G-vecs:    dense   smooth      PW
     Min        2372    2372    612               174341   174341   22844
     Max        2374    2374    613               174344   174344   22847
     Sum        9493    9493   2449               697371   697371   91383



     bravais-lattice index     =            0
     lattice parameter (alat)  =      20.6591  a.u.
     unit-cell volume          =    8817.2783 (a.u.)^3
     number of atoms/cell      =           64
     number of atomic types    =            1
     number of electrons       =       256.00
     number of Kohn-Sham states=          128
     kinetic-energy cutoff     =      70.0000  Ry
     charge density cutoff     =     280.0000  Ry
     convergence threshold     =      1.0E-09
     mixing beta               =       0.7000
     number of iterations used =            8  plain     mixing
     Exchange-correlation      =  SLA  PW   PBX  PBC ( 1  4  3  4 0 0)

     celldm(1)=  20.659106  celldm(2)=   0.000000  celldm(3)=   0.000000
     celldm(4)=   0.000000  celldm(5)=   0.000000  celldm(6)=   0.000000

     crystal axes: (cart. coord. in units of alat)
               a(1) = (   1.000000   0.000000   0.000000 )  
               a(2) = (   0.000000   1.000000   0.000000 )  
               a(3) = (   0.000000   0.000000   1.000000 )  

     reciprocal axes: (cart. coord. in units 2 pi/alat)
               b(1) = (  1.000000  0.000000  0.000000 )  
               b(2) = (  0.000000  1.000000  0.000000 )  
               b(3) = (  0.000000  0.000000  1.000000 )  


     PseudoPot. # 1 for Si read from file:
     /home/uezono/pseudo/Si.pbe-n-kjpaw_psl.0.1.UPF
     MD5 check sum: 0810ef13ebffcf5dbabd57b297315270
     Pseudo is Projector augmented-wave + core cor, Zval =  4.0
     Generated using "atomic" code by A. Dal Corso  v.5.0.2 svn rev. 9415
     Shape of augmentation charge: PSQ
     Using radial grid of 1141 points,  4 beta functions with: 
                l(1) =   0
                l(2) =   0
                l(3) =   1
                l(4) =   1
     Q(r) pseudized with 0 coefficients 


     atomic species   valence    mass     pseudopotential
        Si             4.00    28.08550     Si( 1.00)

      2 Sym. Ops., with inversion, found ( 1 have fractional translation)



   Cartesian axes

     site n.     atom                  positions (alat units)
         1           Si  tau(   1) = (   0.4404043   0.4375000   0.4375000  )
         2           Si  tau(   2) = (   0.9375000   0.4375000   0.4375000  )
         3           Si  tau(   3) = (   0.4375000   0.9375000   0.4375000  )
         4           Si  tau(   4) = (   0.9375000   0.9375000   0.4375000  )
         5           Si  tau(   5) = (   0.4375000   0.4375000   0.9375000  )
         6           Si  tau(   6) = (   0.9375000   0.4375000   0.9375000  )
         7           Si  tau(   7) = (   0.4375000   0.9375000   0.9375000  )
         8           Si  tau(   8) = (   0.9375000   0.9375000   0.9375000  )
         9           Si  tau(   9) = (   0.4375000   0.1875000   0.1875000  )
        10           Si  tau(  10) = (   0.9375000   0.1875000   0.1875000  )
        11           Si  tau(  11) = (   0.4375000   0.6875000   0.1875000  )
        12           Si  tau(  12) = (   0.9375000   0.6875000   0.1875000  )
        13           Si  tau(  13) = (   0.4375000   0.1875000   0.6875000  )
        14           Si  tau(  14) = (   0.9375000   0.1875000   0.6875000  )
        15           Si  tau(  15) = (   0.4375000   0.6875000   0.6875000  )
        16           Si  tau(  16) = (   0.9375000   0.6875000   0.6875000  )
        17           Si  tau(  17) = (   0.1875000   0.4375000   0.1875000  )
        18           Si  tau(  18) = (   0.6875000   0.4375000   0.1875000  )
        19           Si  tau(  19) = (   0.1875000   0.9375000   0.1875000  )
        20           Si  tau(  20) = (   0.6875000   0.9375000   0.1875000  )
        21           Si  tau(  21) = (   0.1875000   0.4375000   0.6875000  )
        22           Si  tau(  22) = (   0.6875000   0.4375000   0.6875000  )
        23           Si  tau(  23) = (   0.1875000   0.9375000   0.6875000  )
        24           Si  tau(  24) = (   0.6875000   0.9375000   0.6875000  )
        25           Si  tau(  25) = (   0.1875000   0.1875000   0.4375000  )
        26           Si  tau(  26) = (   0.6875000   0.1875000   0.4375000  )
        27           Si  tau(  27) = (   0.1875000   0.6875000   0.4375000  )
        28           Si  tau(  28) = (   0.6875000   0.6875000   0.4375000  )
        29           Si  tau(  29) = (   0.1875000   0.1875000   0.9375000  )
        30           Si  tau(  30) = (   0.6875000   0.1875000   0.9375000  )
        31           Si  tau(  31) = (   0.1875000   0.6875000   0.9375000  )
        32           Si  tau(  32) = (   0.6875000   0.6875000   0.9375000  )
        33           Si  tau(  33) = (   0.0625000   0.0625000   0.0625000  )
        34           Si  tau(  34) = (   0.5625000   0.0625000   0.0625000  )
        35           Si  tau(  35) = (   0.0625000   0.5625000   0.0625000  )
        36           Si  tau(  36) = (   0.5625000   0.5625000   0.0625000  )
        37           Si  tau(  37) = (   0.0625000   0.0625000   0.5625000  )
        38           Si  tau(  38) = (   0.5625000   0.0625000   0.5625000  )
        39           Si  tau(  39) = (   0.0625000   0.5625000   0.5625000  )
        40           Si  tau(  40) = (   0.5625000   0.5625000   0.5625000  )
        41           Si  tau(  41) = (   0.0625000   0.3125000   0.3125000  )
        42           Si  tau(  42) = (   0.5625000   0.3125000   0.3125000  )
        43           Si  tau(  43) = (   0.0625000   0.8125000   0.3125000  )
        44           Si  tau(  44) = (   0.5625000   0.8125000   0.3125000  )
        45           Si  tau(  45) = (   0.0625000   0.3125000   0.8125000  )
        46           Si  tau(  46) = (   0.5625000   0.3125000   0.8125000  )
        47           Si  tau(  47) = (   0.0625000   0.8125000   0.8125000  )
        48           Si  tau(  48) = (   0.5625000   0.8125000   0.8125000  )
        49           Si  tau(  49) = (   0.3095957   0.0625000   0.3125000  )
        50           Si  tau(  50) = (   0.8125000   0.0625000   0.3125000  )
        51           Si  tau(  51) = (   0.3125000   0.5625000   0.3125000  )
        52           Si  tau(  52) = (   0.8125000   0.5625000   0.3125000  )
        53           Si  tau(  53) = (   0.3125000   0.0625000   0.8125000  )
        54           Si  tau(  54) = (   0.8125000   0.0625000   0.8125000  )
        55           Si  tau(  55) = (   0.3125000   0.5625000   0.8125000  )
        56           Si  tau(  56) = (   0.8125000   0.5625000   0.8125000  )
        57           Si  tau(  57) = (   0.3125000   0.3125000   0.0625000  )
        58           Si  tau(  58) = (   0.8125000   0.3125000   0.0625000  )
        59           Si  tau(  59) = (   0.3125000   0.8125000   0.0625000  )
        60           Si  tau(  60) = (   0.8125000   0.8125000   0.0625000  )
        61           Si  tau(  61) = (   0.3125000   0.3125000   0.5625000  )
        62           Si  tau(  62) = (   0.8125000   0.3125000   0.5625000  )
        63           Si  tau(  63) = (   0.3125000   0.8125000   0.5625000  )
        64           Si  tau(  64) = (   0.8125000   0.8125000   0.5625000  )

     number of k points=     4
                       cart. coord. in units 2pi/alat
        k(    1) = (   0.2500000   0.2500000   0.2500000), wk =   0.5000000
        k(    2) = (  -0.2500000   0.2500000  -0.2500000), wk =   0.5000000
        k(    3) = (   0.2500000  -0.2500000  -0.2500000), wk =   0.5000000
        k(    4) = (   0.2500000   0.2500000  -0.2500000), wk =   0.5000000

     Dense  grid:   697371 G-vectors     FFT dimensions: ( 120, 120, 120)

     Estimated max dynamical RAM per process >       1.08 GB

     Estimated total dynamical RAM >       4.33 GB

     Initial potential from superposition of free atoms

     starting charge  255.96421, renormalised to  256.00000
     Starting wfc are  256 randomized atomic wfcs
     Checking if some PAW data can be deallocated... 

     total cpu time spent up to now is       41.2 secs

     Self-consistent Calculation

     iteration #  1     ecut=    70.00 Ry     beta= 0.70
     Davidson diagonalization with overlap
     ethr =  1.00E-02,  avg # of iterations =  2.0

     Threshold (ethr) on eigenvalues was too large:
     Diagonalizing with lowered threshold

     Davidson diagonalization with overlap
     ethr =  6.98E-04,  avg # of iterations =  1.0

     total cpu time spent up to now is      155.6 secs

     total energy              =   -2990.46251391 Ry
     Harris-Foulkes estimate   =   -2990.87987006 Ry
     estimated scf accuracy    <       1.76613086 Ry

     iteration #  2     ecut=    70.00 Ry     beta= 0.70
     Davidson diagonalization with overlap
     ethr =  6.90E-04,  avg # of iterations =  1.0

     total cpu time spent up to now is      204.2 secs

     total energy              =   -2990.52628383 Ry
     Harris-Foulkes estimate   =   -2990.53055643 Ry
     estimated scf accuracy    <       0.07830148 Ry

     iteration #  3     ecut=    70.00 Ry     beta= 0.70
     Davidson diagonalization with overlap
     ethr =  3.06E-05,  avg # of iterations =  2.5

     total cpu time spent up to now is      261.3 secs

     total energy              =   -2990.53501836 Ry
     Harris-Foulkes estimate   =   -2990.53563781 Ry
     estimated scf accuracy    <       0.00173502 Ry

     iteration #  4     ecut=    70.00 Ry     beta= 0.70
     Davidson diagonalization with overlap
     ethr =  6.78E-07,  avg # of iterations =  3.0

     total cpu time spent up to now is      338.2 secs

     total energy              =   -2990.53577940 Ry
     Harris-Foulkes estimate   =   -2990.53605512 Ry
     estimated scf accuracy    <       0.00064618 Ry

     iteration #  5     ecut=    70.00 Ry     beta= 0.70
     Davidson diagonalization with overlap
     ethr =  2.52E-07,  avg # of iterations =  3.0

     total cpu time spent up to now is      403.8 secs

     total energy              =   -2990.53590888 Ry
     Harris-Foulkes estimate   =   -2990.53594421 Ry
     estimated scf accuracy    <       0.00008865 Ry

     iteration #  6     ecut=    70.00 Ry     beta= 0.70
     Davidson diagonalization with overlap
     ethr =  3.46E-08,  avg # of iterations =  3.0

     total cpu time spent up to now is      472.5 secs

     total energy              =   -2990.53592154 Ry
     Harris-Foulkes estimate   =   -2990.53594020 Ry
     estimated scf accuracy    <       0.00006206 Ry

     iteration #  7     ecut=    70.00 Ry     beta= 0.70
     Davidson diagonalization with overlap
     ethr =  2.42E-08,  avg # of iterations =  2.0

     total cpu time spent up to now is      531.1 secs

     total energy              =   -2990.53593042 Ry
     Harris-Foulkes estimate   =   -2990.53593082 Ry
     estimated scf accuracy    <       0.00000081 Ry

     iteration #  8     ecut=    70.00 Ry     beta= 0.70
     Davidson diagonalization with overlap
     ethr =  3.17E-10,  avg # of iterations =  3.0

     total cpu time spent up to now is      617.1 secs

     total energy              =   -2990.53593081 Ry
     Harris-Foulkes estimate   =   -2990.53593105 Ry
     estimated scf accuracy    <       0.00000024 Ry

     iteration #  9     ecut=    70.00 Ry     beta= 0.70
     Davidson diagonalization with overlap
     ethr =  9.47E-11,  avg # of iterations =  2.0

     total cpu time spent up to now is      678.9 secs

     total energy              =   -2990.53593078 Ry
     Harris-Foulkes estimate   =   -2990.53593085 Ry
     estimated scf accuracy    <       0.00000004 Ry

     iteration # 10     ecut=    70.00 Ry     beta= 0.70
     Davidson diagonalization with overlap
     ethr =  1.39E-11,  avg # of iterations =  3.0

     total cpu time spent up to now is      751.4 secs

     total energy              =   -2990.53593078 Ry
     Harris-Foulkes estimate   =   -2990.53593079 Ry
     estimated scf accuracy    <       0.00000003 Ry

     iteration # 11     ecut=    70.00 Ry     beta= 0.70
     Davidson diagonalization with overlap
     ethr =  9.82E-12,  avg # of iterations =  2.0

     total cpu time spent up to now is      810.6 secs

     total energy              =   -2990.53593079 Ry
     Harris-Foulkes estimate   =   -2990.53593079 Ry
     estimated scf accuracy    <          2.2E-09 Ry

     iteration # 12     ecut=    70.00 Ry     beta= 0.70
     Davidson diagonalization with overlap
     ethr =  8.77E-13,  avg # of iterations =  3.0

     total cpu time spent up to now is      874.3 secs

     End of self-consistent calculation

          k = 0.2500 0.2500 0.2500 ( 87251 PWs)   bands (ev):

    -5.6250  -5.0992  -5.0964  -5.0938  -4.5993  -4.5968  -4.5940  -4.1620
    -4.0654  -4.0631  -4.0605  -3.6554  -3.6504  -3.6468  -3.6463  -3.6439
    -3.6424  -3.4575  -3.4569  -3.4523  -2.9585  -2.9576  -2.9539  -2.5929
    -2.5902  -2.5857  -2.4294  -2.4227  -2.4209  -2.4202  -2.4171  -2.4162
    -0.8893  -0.8787  -0.8781  -0.8774  -0.8727  -0.8707  -0.7840  -0.7788
    -0.7753  -0.6672  -0.6575  -0.6571  -0.5888  -0.5767  -0.5754   0.1226
     0.2012   0.2101   0.2108   0.2121   0.2180   0.2214   1.0767   1.0849
     1.0872   1.4131   1.4203   1.4218   2.0244   2.0259   2.0288   2.0307
     2.0318   2.0340   2.0858   2.0905   2.0919   2.6353   2.6390   2.6402
     2.7401   2.7413   2.7434   2.7446   2.7479   2.7495   2.7936   2.8001
     2.8025   3.0993   3.1059   3.1075   3.1088   3.1104   3.1125   3.3713
     3.3720   3.3754   3.3823   3.3897   3.3905   3.7279   3.7339   3.7355
     3.7514   3.7531   3.7560   3.8376   3.8401   3.8444   4.1052   4.1074
     4.1108   4.1148   4.1151   4.1157   4.1518   4.1541   4.1591   4.4089
     4.4710   4.4721   4.4768   4.7127   4.7153   4.7211   4.7684   4.7763
     4.7779   4.9325   4.9423   5.2420   5.2443   5.2528   5.7206   5.7320

          k =-0.2500 0.2500-0.2500 ( 87251 PWs)   bands (ev):

    -5.6251  -5.0995  -5.0961  -5.0930  -4.6001  -4.5964  -4.5938  -4.1641
    -4.0670  -4.0638  -4.0603  -3.6528  -3.6522  -3.6487  -3.6466  -3.6422
    -3.6370  -3.4578  -3.4568  -3.4475  -2.9647  -2.9599  -2.9567  -2.5921
    -2.5897  -2.5850  -2.4270  -2.4251  -2.4229  -2.4204  -2.4167  -2.4105
    -0.8862  -0.8816  -0.8813  -0.8779  -0.8739  -0.8717  -0.7843  -0.7804
    -0.7794  -0.6696  -0.6642  -0.6579  -0.5766  -0.5725  -0.5663   0.1299
     0.2015   0.2052   0.2080   0.2108   0.2146   0.2155   1.0848   1.0886
     1.0899   1.4154   1.4158   1.4237   2.0256   2.0260   2.0282   2.0290
     2.0304   2.0351   2.0845   2.0858   2.0907   2.6404   2.6412   2.6445
     2.7359   2.7381   2.7428   2.7431   2.7444   2.7469   2.7914   2.7923
     2.7987   3.1020   3.1054   3.1071   3.1079   3.1114   3.1126   3.3666
     3.3715   3.3732   3.3821   3.3829   3.3901   3.7340   3.7367   3.7385
     3.7554   3.7584   3.7653   3.8348   3.8399   3.8404   4.1125   4.1134
     4.1141   4.1161   4.1177   4.1276   4.1482   4.1542   4.1552   4.4171
     4.4640   4.4702   4.4719   4.7084   4.7140   4.7149   4.7795   4.7843
     4.7874   4.9298   4.9401   5.2353   5.2429   5.2441   5.7160   5.7271

          k = 0.2500-0.2500-0.2500 ( 87251 PWs)   bands (ev):

    -5.6249  -5.1010  -5.0953  -5.0930  -4.6012  -4.5956  -4.5932  -4.1621
    -4.0678  -4.0621  -4.0592  -3.6562  -3.6518  -3.6468  -3.6455  -3.6431
    -3.6417  -3.4574  -3.4568  -3.4523  -2.9618  -2.9567  -2.9515  -2.5929
    -2.5902  -2.5857  -2.4304  -2.4245  -2.4200  -2.4190  -2.4169  -2.4157
    -0.8893  -0.8802  -0.8766  -0.8754  -0.8738  -0.8715  -0.7842  -0.7785
    -0.7756  -0.6671  -0.6576  -0.6571  -0.5846  -0.5818  -0.5747   0.1226
     0.2013   0.2087   0.2125   0.2146   0.2171   0.2193   1.0767   1.0849
     1.0871   1.4127   1.4207   1.4217   2.0247   2.0261   2.0292   2.0305
     2.0315   2.0337   2.0863   2.0905   2.0911   2.6353   2.6389   2.6402
     2.7403   2.7413   2.7430   2.7448   2.7487   2.7489   2.7939   2.7997
     2.8024   3.0993   3.1058   3.1074   3.1078   3.1113   3.1128   3.3715
     3.3722   3.3749   3.3817   3.3900   3.3909   3.7285   3.7337   3.7353
     3.7514   3.7528   3.7562   3.8375   3.8402   3.8443   4.1058   4.1078
     4.1100   4.1136   4.1151   4.1165   4.1517   4.1545   4.1589   4.4089
     4.4710   4.4721   4.4768   4.7127   4.7157   4.7207   4.7693   4.7750
     4.7782   4.9325   4.9423   5.2419   5.2453   5.2519   5.7206   5.7320

          k = 0.2500 0.2500-0.2500 ( 87251 PWs)   bands (ev):

    -5.6251  -5.0995  -5.0961  -5.0930  -4.6000  -4.5964  -4.5938  -4.1643
    -4.0668  -4.0638  -4.0603  -3.6507  -3.6505  -3.6500  -3.6476  -3.6431
    -3.6376  -3.4578  -3.4574  -3.4469  -2.9647  -2.9600  -2.9567  -2.5926
    -2.5921  -2.5821  -2.4252  -2.4243  -2.4235  -2.4216  -2.4174  -2.4107
    -0.8851  -0.8842  -0.8797  -0.8794  -0.8730  -0.8714  -0.7856  -0.7843
    -0.7737  -0.6703  -0.6642  -0.6575  -0.5766  -0.5725  -0.5663   0.1300
     0.2007   0.2032   0.2084   0.2100   0.2166   0.2167   1.0848   1.0886
     1.0899   1.4154   1.4158   1.4237   2.0243   2.0254   2.0289   2.0296
     2.0308   2.0348   2.0848   2.0861   2.0908   2.6401   2.6404   2.6456
     2.7343   2.7360   2.7415   2.7446   2.7459   2.7477   2.7919   2.7928
     2.7987   3.1019   3.1055   3.1068   3.1083   3.1115   3.1125   3.3677
     3.3703   3.3730   3.3826   3.3827   3.3901   3.7342   3.7368   3.7383
     3.7554   3.7585   3.7652   3.8347   3.8398   3.8405   4.1120   4.1127
     4.1143   4.1169   4.1182   4.1275   4.1484   4.1541   4.1552   4.4171
     4.4654   4.4685   4.4718   4.7084   4.7140   4.7149   4.7795   4.7843
     4.7874   4.9299   4.9401   5.2353   5.2429   5.2441   5.7159   5.7271

     highest occupied level (ev):     5.7320

!    total energy              =   -2990.53593079 Ry
     Harris-Foulkes estimate   =   -2990.53593079 Ry
     estimated scf accuracy    <          3.0E-10 Ry

     total all-electron energy =    -37124.671484 Ry

     The total energy is the sum of the following terms:

     one-electron contribution =     178.60420841 Ry
     hartree contribution      =      35.70170346 Ry
     xc contribution           =    -391.44049740 Ry
     ewald contribution        =    -534.00633772 Ry
     one-center paw contrib.   =   -2279.39500755 Ry

     convergence has been achieved in  12 iterations

     Forces acting on atoms (cartesian axes, Ry/au):

     atom    1 type  1   force =    -0.01580979    0.00003569   -0.00004943
     atom    2 type  1   force =    -0.00000576    0.00002701   -0.00002913
     atom    3 type  1   force =    -0.00375645    0.00248292   -0.00248157
     atom    4 type  1   force =     0.00000528    0.00003753   -0.00003803
     atom    5 type  1   force =    -0.00019822    0.00002684   -0.00002741
     atom    6 type  1   force =     0.00001476    0.00003081   -0.00003074
     atom    7 type  1   force =    -0.00041563    0.00005239   -0.00003735
     atom    8 type  1   force =    -0.00000409    0.00002924   -0.00002689
     atom    9 type  1   force =    -0.00433983   -0.00236726    0.00259617
     atom   10 type  1   force =     0.00001238   -0.00002851    0.00004717
     atom   11 type  1   force =    -0.00046472    0.00007183   -0.00005802
     atom   12 type  1   force =    -0.00002812   -0.00001714    0.00002000
     atom   13 type  1   force =    -0.00046546   -0.00016110    0.00014642
     atom   14 type  1   force =    -0.00002759   -0.00003863    0.00003628
     atom   15 type  1   force =    -0.00078077   -0.00014179   -0.00008639
     atom   16 type  1   force =     0.00002114   -0.00004012    0.00002138
     atom   17 type  1   force =     0.00029197   -0.00014922    0.00017753
     atom   18 type  1   force =     0.00021196   -0.00013881   -0.00025963
     atom   19 type  1   force =    -0.00388671   -0.00271327   -0.00278048
     atom   20 type  1   force =     0.00005560   -0.00004749    0.00003864
     atom   21 type  1   force =    -0.00002433    0.00008185   -0.00025596
     atom   22 type  1   force =     0.00025978    0.00008231    0.00020128
     atom   23 type  1   force =     0.00010276   -0.00003998    0.00003818
     atom   24 type  1   force =     0.00001679   -0.00001639   -0.00010110
     atom   25 type  1   force =    -0.00369648    0.00293321    0.00259546
     atom   26 type  1   force =     0.00025041   -0.00019494   -0.00007544
     atom   27 type  1   force =     0.00029122   -0.00018903    0.00016008
     atom   28 type  1   force =     0.00021281    0.00025778    0.00014040
     atom   29 type  1   force =     0.00010332   -0.00002655    0.00002927
     atom   30 type  1   force =     0.00001645    0.00010316    0.00001534
     atom   31 type  1   force =    -0.00021361    0.00010451    0.00003747
     atom   32 type  1   force =     0.00006470   -0.00004524    0.00004095
     atom   33 type  1   force =    -0.00025978   -0.00008231   -0.00020128
     atom   34 type  1   force =     0.00002433   -0.00008185    0.00025596
     atom   35 type  1   force =    -0.00001679    0.00001639    0.00010110
     atom   36 type  1   force =    -0.00010276    0.00003998   -0.00003818
     atom   37 type  1   force =    -0.00021196    0.00013881    0.00025963
     atom   38 type  1   force =    -0.00029197    0.00014922   -0.00017753
     atom   39 type  1   force =    -0.00005560    0.00004749   -0.00003864
     atom   40 type  1   force =     0.00388671    0.00271327    0.00278048
     atom   41 type  1   force =    -0.00025041    0.00019494    0.00007544
     atom   42 type  1   force =     0.00369648   -0.00293321   -0.00259546
     atom   43 type  1   force =    -0.00021281   -0.00025778   -0.00014040
     atom   44 type  1   force =    -0.00029122    0.00018903   -0.00016008
     atom   45 type  1   force =    -0.00001645   -0.00010316   -0.00001534
     atom   46 type  1   force =    -0.00010332    0.00002655   -0.00002927
     atom   47 type  1   force =    -0.00006470    0.00004524   -0.00004095
     atom   48 type  1   force =     0.00021361   -0.00010451   -0.00003747
     atom   49 type  1   force =     0.01580979   -0.00003569    0.00004943
     atom   50 type  1   force =     0.00000576   -0.00002701    0.00002913
     atom   51 type  1   force =     0.00375645   -0.00248292    0.00248157
     atom   52 type  1   force =    -0.00000528   -0.00003753    0.00003803
     atom   53 type  1   force =     0.00019822   -0.00002684    0.00002741
     atom   54 type  1   force =    -0.00001476   -0.00003081    0.00003074
     atom   55 type  1   force =     0.00041563   -0.00005239    0.00003735
     atom   56 type  1   force =     0.00000409   -0.00002924    0.00002689
     atom   57 type  1   force =     0.00046546    0.00016110   -0.00014642
     atom   58 type  1   force =     0.00002759    0.00003863   -0.00003628
     atom   59 type  1   force =     0.00078077    0.00014179    0.00008639
     atom   60 type  1   force =    -0.00002114    0.00004012   -0.00002138
     atom   61 type  1   force =     0.00433983    0.00236726   -0.00259617
     atom   62 type  1   force =    -0.00001238    0.00002851   -0.00004717
     atom   63 type  1   force =     0.00046472   -0.00007183    0.00005802
     atom   64 type  1   force =     0.00002812    0.00001714   -0.00002000

     Total force =     0.027170     Total SCF correction =     0.000031


     Computing stress (Cartesian axis) and pressure

          total   stress  (Ry/bohr**3)                   (kbar)     P=    0.12
   0.00000059  -0.00000000  -0.00000000          0.09     -0.00     -0.00
  -0.00000000   0.00000089   0.00000476         -0.00      0.13      0.70
  -0.00000000   0.00000476   0.00000089         -0.00      0.70      0.13


     init_run     :     40.18s CPU     41.06s WALL (       1 calls)
     electrons    :    814.84s CPU    833.10s WALL (       1 calls)
     forces       :     11.61s CPU     11.79s WALL (       1 calls)
     stress       :     56.89s CPU     57.12s WALL (       1 calls)

     Called by init_run:
     wfcinit      :     37.10s CPU     37.84s WALL (       1 calls)
     potinit      :      1.05s CPU      1.09s WALL (       1 calls)

     Called by electrons:
     c_bands      :    676.07s CPU    691.37s WALL (      13 calls)
     sum_band     :    123.40s CPU    125.51s WALL (      13 calls)
     v_of_rho     :      5.02s CPU      5.18s WALL (      13 calls)
     newd         :      2.72s CPU      3.47s WALL (      13 calls)
     PAW_pot      :      7.58s CPU      7.58s WALL (      13 calls)
     mix_rho      :      1.10s CPU      1.11s WALL (      13 calls)

     Called by c_bands:
     init_us_2    :      7.03s CPU      7.06s WALL (     116 calls)
     cegterg      :    662.36s CPU    677.59s WALL (      52 calls)

     Called by sum_band:
     sum_band:bec :      0.01s CPU      0.02s WALL (      52 calls)
     addusdens    :      3.38s CPU      4.05s WALL (      13 calls)

     Called by *egterg:
     h_psi        :    591.40s CPU    600.91s WALL (     178 calls)
     s_psi        :     34.32s CPU     34.30s WALL (     178 calls)
     g_psi        :      1.22s CPU      1.21s WALL (     122 calls)
     cdiaghg      :      3.96s CPU      3.96s WALL (     170 calls)

     Called by h_psi:
     h_psi:pot    :    587.56s CPU    597.02s WALL (     178 calls)
     h_psi:calbec :     33.84s CPU     33.88s WALL (     178 calls)
     vloc_psi     :    519.51s CPU    528.94s WALL (     178 calls)
     add_vuspsi   :     34.21s CPU     34.20s WALL (     178 calls)

     General routines
     calbec       :     50.23s CPU     50.29s WALL (     250 calls)
     fft          :      4.34s CPU      4.59s WALL (     196 calls)
     fftw         :    523.66s CPU    533.92s WALL (   45712 calls)

     Parallel routines
     fft_scatt_xy :     87.05s CPU     87.44s WALL (   45908 calls)
     fft_scatt_yz :     95.30s CPU    100.95s WALL (   45908 calls)

     PWSCF        : 15m23.62s CPU    15m43.20s WALL


   This run was terminated on:  12:19: 2  25Oct2021            

=------------------------------------------------------------------------------=
   JOB DONE.
=------------------------------------------------------------------------------=
Note: The following floating-point exceptions are signalling: IEEE_UNDERFLOW_FLAG IEEE_DENORMAL
