
     Program PWSCF v.6.2 (svn rev. 13949:13950) starts on 25Oct2021 at  6:25:26 

     This program is part of the open-source Quantum ESPRESSO suite
     for quantum simulation of materials; please cite
         "P. Giannozzi et al., J. Phys.:Condens. Matter 21 395502 (2009);
         "P. Giannozzi et al., J. Phys.:Condens. Matter 29 465901 (2017);
          URL http://www.quantum-espresso.org", 
     in publications or presentations arising from this work. More details at
     http://www.quantum-espresso.org/quote

     Parallel version (MPI), running on     4 processors

     MPI processes distributed on     1 nodes
     R & G space division:  proc/nbgrp/npool/nimage =       4
     Reading input from headeradd_supercell-00063.in

     Current dimensions of program PWSCF are:
     Max number of different atomic species (ntypx) = 10
     Max number of k-points (npk) =  40000
     Max angular momentum in pseudopotentials (lmaxx) =  3
     Message from routine iosys:
     minimal I/O required, wf_collect reset to FALSE
               file Si.pbe-n-kjpaw_psl.0.1.UPF: wavefunction(s)  3S renormalized

     Subspace diagonalization in iterative solution of the eigenvalue problem:
     a serial algorithm will be used


     Parallelization info
     --------------------
     sticks:   dense  smooth     PW     G-vecs:    dense   smooth      PW
     Min        2372    2372    612               174341   174341   22844
     Max        2374    2374    613               174344   174344   22847
     Sum        9493    9493   2449               697371   697371   91383



     bravais-lattice index     =            0
     lattice parameter (alat)  =      20.6591  a.u.
     unit-cell volume          =    8817.2783 (a.u.)^3
     number of atoms/cell      =           64
     number of atomic types    =            1
     number of electrons       =       256.00
     number of Kohn-Sham states=          128
     kinetic-energy cutoff     =      70.0000  Ry
     charge density cutoff     =     280.0000  Ry
     convergence threshold     =      1.0E-09
     mixing beta               =       0.7000
     number of iterations used =            8  plain     mixing
     Exchange-correlation      =  SLA  PW   PBX  PBC ( 1  4  3  4 0 0)

     celldm(1)=  20.659106  celldm(2)=   0.000000  celldm(3)=   0.000000
     celldm(4)=   0.000000  celldm(5)=   0.000000  celldm(6)=   0.000000

     crystal axes: (cart. coord. in units of alat)
               a(1) = (   1.000000   0.000000   0.000000 )  
               a(2) = (   0.000000   1.000000   0.000000 )  
               a(3) = (   0.000000   0.000000   1.000000 )  

     reciprocal axes: (cart. coord. in units 2 pi/alat)
               b(1) = (  1.000000  0.000000  0.000000 )  
               b(2) = (  0.000000  1.000000  0.000000 )  
               b(3) = (  0.000000  0.000000  1.000000 )  


     PseudoPot. # 1 for Si read from file:
     /home/uezono/pseudo/Si.pbe-n-kjpaw_psl.0.1.UPF
     MD5 check sum: 0810ef13ebffcf5dbabd57b297315270
     Pseudo is Projector augmented-wave + core cor, Zval =  4.0
     Generated using "atomic" code by A. Dal Corso  v.5.0.2 svn rev. 9415
     Shape of augmentation charge: PSQ
     Using radial grid of 1141 points,  4 beta functions with: 
                l(1) =   0
                l(2) =   0
                l(3) =   1
                l(4) =   1
     Q(r) pseudized with 0 coefficients 


     atomic species   valence    mass     pseudopotential
        Si             4.00    28.08550     Si( 1.00)

      4 Sym. Ops., with inversion, found ( 2 have fractional translation)



   Cartesian axes

     site n.     atom                  positions (alat units)
         1           Si  tau(   1) = (   0.4404043   0.4375000   0.4375000  )
         2           Si  tau(   2) = (   0.9375000   0.4375000   0.4375000  )
         3           Si  tau(   3) = (   0.4375000   0.9375000   0.4375000  )
         4           Si  tau(   4) = (   0.9375000   0.9375000   0.4375000  )
         5           Si  tau(   5) = (   0.4375000   0.4375000   0.9375000  )
         6           Si  tau(   6) = (   0.9375000   0.4375000   0.9375000  )
         7           Si  tau(   7) = (   0.4375000   0.9375000   0.9375000  )
         8           Si  tau(   8) = (   0.9375000   0.9375000   0.9375000  )
         9           Si  tau(   9) = (   0.4375000   0.1875000   0.1875000  )
        10           Si  tau(  10) = (   0.9375000   0.1875000   0.1875000  )
        11           Si  tau(  11) = (   0.4375000   0.6875000   0.1875000  )
        12           Si  tau(  12) = (   0.9375000   0.6875000   0.1875000  )
        13           Si  tau(  13) = (   0.4375000   0.1875000   0.6875000  )
        14           Si  tau(  14) = (   0.9375000   0.1875000   0.6875000  )
        15           Si  tau(  15) = (   0.4375000   0.6875000   0.6875000  )
        16           Si  tau(  16) = (   0.9375000   0.6875000   0.6875000  )
        17           Si  tau(  17) = (   0.1875000   0.4375000   0.1875000  )
        18           Si  tau(  18) = (   0.6875000   0.4375000   0.1875000  )
        19           Si  tau(  19) = (   0.1875000   0.9375000   0.1875000  )
        20           Si  tau(  20) = (   0.6875000   0.9375000   0.1875000  )
        21           Si  tau(  21) = (   0.1875000   0.4375000   0.6875000  )
        22           Si  tau(  22) = (   0.6875000   0.4375000   0.6875000  )
        23           Si  tau(  23) = (   0.1875000   0.9375000   0.6875000  )
        24           Si  tau(  24) = (   0.6875000   0.9375000   0.6875000  )
        25           Si  tau(  25) = (   0.1875000   0.1875000   0.4375000  )
        26           Si  tau(  26) = (   0.6875000   0.1875000   0.4375000  )
        27           Si  tau(  27) = (   0.1875000   0.6875000   0.4375000  )
        28           Si  tau(  28) = (   0.6875000   0.6875000   0.4375000  )
        29           Si  tau(  29) = (   0.1875000   0.1875000   0.9375000  )
        30           Si  tau(  30) = (   0.6875000   0.1875000   0.9375000  )
        31           Si  tau(  31) = (   0.1875000   0.6875000   0.9375000  )
        32           Si  tau(  32) = (   0.6875000   0.6875000   0.9375000  )
        33           Si  tau(  33) = (   0.0625000   0.0625000   0.0625000  )
        34           Si  tau(  34) = (   0.5595957   0.0625000   0.0625000  )
        35           Si  tau(  35) = (   0.0625000   0.5625000   0.0625000  )
        36           Si  tau(  36) = (   0.5625000   0.5625000   0.0625000  )
        37           Si  tau(  37) = (   0.0625000   0.0625000   0.5625000  )
        38           Si  tau(  38) = (   0.5625000   0.0625000   0.5625000  )
        39           Si  tau(  39) = (   0.0625000   0.5625000   0.5625000  )
        40           Si  tau(  40) = (   0.5625000   0.5625000   0.5625000  )
        41           Si  tau(  41) = (   0.0625000   0.3125000   0.3125000  )
        42           Si  tau(  42) = (   0.5625000   0.3125000   0.3125000  )
        43           Si  tau(  43) = (   0.0625000   0.8125000   0.3125000  )
        44           Si  tau(  44) = (   0.5625000   0.8125000   0.3125000  )
        45           Si  tau(  45) = (   0.0625000   0.3125000   0.8125000  )
        46           Si  tau(  46) = (   0.5625000   0.3125000   0.8125000  )
        47           Si  tau(  47) = (   0.0625000   0.8125000   0.8125000  )
        48           Si  tau(  48) = (   0.5625000   0.8125000   0.8125000  )
        49           Si  tau(  49) = (   0.3125000   0.0625000   0.3125000  )
        50           Si  tau(  50) = (   0.8125000   0.0625000   0.3125000  )
        51           Si  tau(  51) = (   0.3125000   0.5625000   0.3125000  )
        52           Si  tau(  52) = (   0.8125000   0.5625000   0.3125000  )
        53           Si  tau(  53) = (   0.3125000   0.0625000   0.8125000  )
        54           Si  tau(  54) = (   0.8125000   0.0625000   0.8125000  )
        55           Si  tau(  55) = (   0.3125000   0.5625000   0.8125000  )
        56           Si  tau(  56) = (   0.8125000   0.5625000   0.8125000  )
        57           Si  tau(  57) = (   0.3125000   0.3125000   0.0625000  )
        58           Si  tau(  58) = (   0.8125000   0.3125000   0.0625000  )
        59           Si  tau(  59) = (   0.3125000   0.8125000   0.0625000  )
        60           Si  tau(  60) = (   0.8125000   0.8125000   0.0625000  )
        61           Si  tau(  61) = (   0.3125000   0.3125000   0.5625000  )
        62           Si  tau(  62) = (   0.8125000   0.3125000   0.5625000  )
        63           Si  tau(  63) = (   0.3125000   0.8125000   0.5625000  )
        64           Si  tau(  64) = (   0.8125000   0.8125000   0.5625000  )

     number of k points=     3
                       cart. coord. in units 2pi/alat
        k(    1) = (   0.2500000   0.2500000   0.2500000), wk =   0.5000000
        k(    2) = (   0.2500000   0.2500000  -0.2500000), wk =   1.0000000
        k(    3) = (  -0.2500000   0.2500000   0.2500000), wk =   0.5000000

     Dense  grid:   697371 G-vectors     FFT dimensions: ( 120, 120, 120)

     Estimated max dynamical RAM per process >       1.04 GB

     Estimated total dynamical RAM >       4.16 GB

     Initial potential from superposition of free atoms

     starting charge  255.96421, renormalised to  256.00000
     Starting wfc are  256 randomized atomic wfcs
     Checking if some PAW data can be deallocated... 

     total cpu time spent up to now is       31.9 secs

     Self-consistent Calculation

     iteration #  1     ecut=    70.00 Ry     beta= 0.70
     Davidson diagonalization with overlap
     ethr =  1.00E-02,  avg # of iterations =  2.0

     Threshold (ethr) on eigenvalues was too large:
     Diagonalizing with lowered threshold

     Davidson diagonalization with overlap
     ethr =  6.98E-04,  avg # of iterations =  1.0

     total cpu time spent up to now is      118.4 secs

     total energy              =   -2990.46249600 Ry
     Harris-Foulkes estimate   =   -2990.87965122 Ry
     estimated scf accuracy    <       1.76607260 Ry

     iteration #  2     ecut=    70.00 Ry     beta= 0.70
     Davidson diagonalization with overlap
     ethr =  6.90E-04,  avg # of iterations =  1.0

     total cpu time spent up to now is      155.4 secs

     total energy              =   -2990.52626337 Ry
     Harris-Foulkes estimate   =   -2990.53051643 Ry
     estimated scf accuracy    <       0.07831546 Ry

     iteration #  3     ecut=    70.00 Ry     beta= 0.70
     Davidson diagonalization with overlap
     ethr =  3.06E-05,  avg # of iterations =  2.7

     total cpu time spent up to now is      198.9 secs

     total energy              =   -2990.53498621 Ry
     Harris-Foulkes estimate   =   -2990.53562892 Ry
     estimated scf accuracy    <       0.00175747 Ry

     iteration #  4     ecut=    70.00 Ry     beta= 0.70
     Davidson diagonalization with overlap
     ethr =  6.87E-07,  avg # of iterations =  3.0

     total cpu time spent up to now is      259.6 secs

     total energy              =   -2990.53565663 Ry
     Harris-Foulkes estimate   =   -2990.53612167 Ry
     estimated scf accuracy    <       0.00122889 Ry

     iteration #  5     ecut=    70.00 Ry     beta= 0.70
     Davidson diagonalization with overlap
     ethr =  4.80E-07,  avg # of iterations =  3.0

     total cpu time spent up to now is      306.3 secs

     total energy              =   -2990.53587394 Ry
     Harris-Foulkes estimate   =   -2990.53593514 Ry
     estimated scf accuracy    <       0.00017088 Ry

     iteration #  6     ecut=    70.00 Ry     beta= 0.70
     Davidson diagonalization with overlap
     ethr =  6.68E-08,  avg # of iterations =  3.0

     total cpu time spent up to now is      355.3 secs

     total energy              =   -2990.53589981 Ry
     Harris-Foulkes estimate   =   -2990.53592327 Ry
     estimated scf accuracy    <       0.00007051 Ry

     iteration #  7     ecut=    70.00 Ry     beta= 0.70
     Davidson diagonalization with overlap
     ethr =  2.75E-08,  avg # of iterations =  2.0

     total cpu time spent up to now is      400.5 secs

     total energy              =   -2990.53591110 Ry
     Harris-Foulkes estimate   =   -2990.53591152 Ry
     estimated scf accuracy    <       0.00000077 Ry

     iteration #  8     ecut=    70.00 Ry     beta= 0.70
     Davidson diagonalization with overlap
     ethr =  3.02E-10,  avg # of iterations =  4.0

     total cpu time spent up to now is      468.6 secs

     total energy              =   -2990.53591195 Ry
     Harris-Foulkes estimate   =   -2990.53591220 Ry
     estimated scf accuracy    <       0.00000034 Ry

     iteration #  9     ecut=    70.00 Ry     beta= 0.70
     Davidson diagonalization with overlap
     ethr =  1.33E-10,  avg # of iterations =  2.0

     total cpu time spent up to now is      514.8 secs

     total energy              =   -2990.53591189 Ry
     Harris-Foulkes estimate   =   -2990.53591200 Ry
     estimated scf accuracy    <       0.00000007 Ry

     iteration # 10     ecut=    70.00 Ry     beta= 0.70
     Davidson diagonalization with overlap
     ethr =  2.84E-11,  avg # of iterations =  3.0

     total cpu time spent up to now is      564.4 secs

     total energy              =   -2990.53591187 Ry
     Harris-Foulkes estimate   =   -2990.53591190 Ry
     estimated scf accuracy    <       0.00000003 Ry

     iteration # 11     ecut=    70.00 Ry     beta= 0.70
     Davidson diagonalization with overlap
     ethr =  1.06E-11,  avg # of iterations =  3.0

     total cpu time spent up to now is      612.1 secs

     total energy              =   -2990.53591188 Ry
     Harris-Foulkes estimate   =   -2990.53591187 Ry
     estimated scf accuracy    <          6.5E-09 Ry

     iteration # 12     ecut=    70.00 Ry     beta= 0.70
     Davidson diagonalization with overlap
     ethr =  2.54E-12,  avg # of iterations =  3.0

     total cpu time spent up to now is      661.2 secs

     total energy              =   -2990.53591188 Ry
     Harris-Foulkes estimate   =   -2990.53591188 Ry
     estimated scf accuracy    <          2.4E-09 Ry

     iteration # 13     ecut=    70.00 Ry     beta= 0.70
     Davidson diagonalization with overlap
     ethr =  9.31E-13,  avg # of iterations =  2.0

     total cpu time spent up to now is      707.1 secs

     End of self-consistent calculation

          k = 0.2500 0.2500 0.2500 ( 87251 PWs)   bands (ev):

    -5.6250  -5.1021  -5.0946  -5.0927  -4.6022  -4.5949  -4.5930  -4.1622
    -4.0687  -4.0616  -4.0587  -3.6585  -3.6480  -3.6470  -3.6444  -3.6443
    -3.6432  -3.4614  -3.4529  -3.4519  -2.9618  -2.9565  -2.9519  -2.5943
    -2.5884  -2.5863  -2.4326  -2.4210  -2.4207  -2.4180  -2.4177  -2.4162
    -0.8908  -0.8788  -0.8780  -0.8750  -0.8724  -0.8717  -0.7812  -0.7809
    -0.7767  -0.6666  -0.6604  -0.6542  -0.5856  -0.5815  -0.5740   0.1225
     0.2016   0.2103   0.2121   0.2141   0.2173   0.2183   1.0751   1.0850
     1.0888   1.4129   1.4202   1.4220   2.0220   2.0277   2.0287   2.0301
     2.0322   2.0345   2.0872   2.0907   2.0910   2.6354   2.6390   2.6399
     2.7392   2.7409   2.7416   2.7441   2.7492   2.7501   2.7934   2.8002
     2.8037   3.0977   3.1055   3.1080   3.1085   3.1098   3.1147   3.3706
     3.3724   3.3751   3.3817   3.3898   3.3914   3.7273   3.7341   3.7363
     3.7485   3.7547   3.7571   3.8369   3.8412   3.8437   4.1009   4.1097
     4.1116   4.1141   4.1156   4.1171   4.1510   4.1556   4.1585   4.4089
     4.4711   4.4714   4.4777   4.7121   4.7170   4.7199   4.7688   4.7753
     4.7787   4.9324   4.9424   5.2415   5.2469   5.2507   5.7207   5.7321

          k = 0.2500 0.2500-0.2500 ( 87251 PWs)   bands (ev):

    -5.6251  -5.0998  -5.0972  -5.0917  -4.6002  -4.5976  -4.5925  -4.1642
    -4.0673  -4.0646  -4.0592  -3.6520  -3.6509  -3.6486  -3.6484  -3.6427
    -3.6368  -3.4574  -3.4527  -3.4522  -2.9642  -2.9601  -2.9570  -2.5925
    -2.5886  -2.5855  -2.4262  -2.4250  -2.4224  -2.4217  -2.4170  -2.4105
    -0.8854  -0.8826  -0.8819  -0.8795  -0.8758  -0.8677  -0.7852  -0.7823
    -0.7766  -0.6672  -0.6667  -0.6574  -0.5777  -0.5719  -0.5657   0.1300
     0.2037   0.2045   0.2067   0.2089   0.2123   0.2195   1.0832   1.0866
     1.0934   1.4147   1.4165   1.4235   2.0227   2.0258   2.0291   2.0295
     2.0325   2.0338   2.0853   2.0863   2.0902   2.6400   2.6413   2.6449
     2.7345   2.7357   2.7428   2.7436   2.7457   2.7476   2.7914   2.7927
     2.7995   3.1031   3.1047   3.1066   3.1083   3.1084   3.1153   3.3675
     3.3719   3.3722   3.3822   3.3829   3.3898   3.7341   3.7347   3.7398
     3.7572   3.7602   3.7628   3.8350   3.8381   3.8418   4.1119   4.1130
     4.1150   4.1166   4.1203   4.1246   4.1485   4.1521   4.1568   4.4171
     4.4646   4.4701   4.4711   4.7090   4.7126   4.7156   4.7790   4.7836
     4.7888   4.9300   4.9401   5.2363   5.2408   5.2454   5.7162   5.7272

          k =-0.2500 0.2500 0.2500 ( 87251 PWs)   bands (ev):

    -5.6250  -5.1007  -5.0946  -5.0941  -4.6011  -4.5949  -4.5941  -4.1620
    -4.0674  -4.0616  -4.0601  -3.6570  -3.6532  -3.6465  -3.6463  -3.6417
    -3.6404  -3.4623  -3.4524  -3.4519  -2.9622  -2.9564  -2.9514  -2.5970
    -2.5863  -2.5854  -2.4300  -2.4263  -2.4203  -2.4201  -2.4154  -2.4145
    -0.8901  -0.8776  -0.8775  -0.8775  -0.8734  -0.8703  -0.7871  -0.7767
    -0.7755  -0.6672  -0.6605  -0.6535  -0.5876  -0.5793  -0.5740   0.1226
     0.1985   0.2105   0.2112   0.2135   0.2198   0.2200   1.0746   1.0855
     1.0887   1.4124   1.4206   1.4220   2.0226   2.0283   2.0294   2.0298
     2.0309   2.0346   2.0861   2.0905   2.0916   2.6344   2.6400   2.6400
     2.7391   2.7401   2.7432   2.7451   2.7475   2.7519   2.7944   2.7985
     2.8029   3.0983   3.1060   3.1077   3.1088   3.1098   3.1136   3.3704
     3.3733   3.3749   3.3814   3.3904   3.3908   3.7276   3.7340   3.7363
     3.7471   3.7558   3.7571   3.8370   3.8400   3.8450   4.1005   4.1086
     4.1129   4.1143   4.1148   4.1176   4.1513   4.1541   4.1598   4.4089
     4.4710   4.4732   4.4760   4.7120   4.7152   4.7217   4.7674   4.7769
     4.7787   4.9325   4.9423   5.2415   5.2446   5.2529   5.7206   5.7321

     highest occupied level (ev):     5.7321

!    total energy              =   -2990.53591188 Ry
     Harris-Foulkes estimate   =   -2990.53591188 Ry
     estimated scf accuracy    <          1.1E-10 Ry

     total all-electron energy =    -37124.671465 Ry

     The total energy is the sum of the following terms:

     one-electron contribution =     178.60414806 Ry
     hartree contribution      =      35.70172561 Ry
     xc contribution           =    -391.44049310 Ry
     ewald contribution        =    -534.00628890 Ry
     one-center paw contrib.   =   -2279.39500355 Ry

     convergence has been achieved in  13 iterations

     Forces acting on atoms (cartesian axes, Ry/au):

     atom    1 type  1   force =    -0.01612545   -0.00002822   -0.00002822
     atom    2 type  1   force =     0.00004346   -0.00003155   -0.00003155
     atom    3 type  1   force =     0.00011532   -0.00005010   -0.00003899
     atom    4 type  1   force =    -0.00003286   -0.00002638   -0.00002487
     atom    5 type  1   force =     0.00011532   -0.00003899   -0.00005010
     atom    6 type  1   force =    -0.00003286   -0.00002487   -0.00002638
     atom    7 type  1   force =    -0.00440494   -0.00270411   -0.00270411
     atom    8 type  1   force =     0.00003675   -0.00003824   -0.00003824
     atom    9 type  1   force =    -0.00445855    0.00281962    0.00281962
     atom   10 type  1   force =     0.00001216    0.00004772    0.00004772
     atom   11 type  1   force =    -0.00046301    0.00014802   -0.00005898
     atom   12 type  1   force =    -0.00002569    0.00003428    0.00001668
     atom   13 type  1   force =    -0.00046301   -0.00005898    0.00014802
     atom   14 type  1   force =    -0.00002569    0.00001668    0.00003428
     atom   15 type  1   force =    -0.00078399   -0.00008596   -0.00008596
     atom   16 type  1   force =     0.00002137    0.00002219    0.00002219
     atom   17 type  1   force =     0.00020343   -0.00008359    0.00019874
     atom   18 type  1   force =     0.00029704   -0.00007666   -0.00028381
     atom   19 type  1   force =     0.00005490    0.00002848   -0.00011489
     atom   20 type  1   force =    -0.00376875    0.00247280   -0.00240638
     atom   21 type  1   force =     0.00025292    0.00013976   -0.00025791
     atom   22 type  1   force =    -0.00001444    0.00014126    0.00020446
     atom   23 type  1   force =     0.00001405    0.00003825    0.00005052
     atom   24 type  1   force =     0.00010147    0.00006127   -0.00011340
     atom   25 type  1   force =     0.00020343    0.00019874   -0.00008359
     atom   26 type  1   force =     0.00029704   -0.00028381   -0.00007666
     atom   27 type  1   force =     0.00025292   -0.00025791    0.00013976
     atom   28 type  1   force =    -0.00001444    0.00020446    0.00014126
     atom   29 type  1   force =     0.00005490   -0.00011489    0.00002848
     atom   30 type  1   force =    -0.00376875   -0.00240638    0.00247280
     atom   31 type  1   force =     0.00001405    0.00005052    0.00003825
     atom   32 type  1   force =     0.00010147   -0.00011340    0.00006127
     atom   33 type  1   force =    -0.00004346    0.00003155    0.00003155
     atom   34 type  1   force =     0.01612545    0.00002822    0.00002822
     atom   35 type  1   force =     0.00003286    0.00002638    0.00002487
     atom   36 type  1   force =    -0.00011532    0.00005010    0.00003899
     atom   37 type  1   force =     0.00003286    0.00002487    0.00002638
     atom   38 type  1   force =    -0.00011532    0.00003899    0.00005010
     atom   39 type  1   force =    -0.00003675    0.00003824    0.00003824
     atom   40 type  1   force =     0.00440494    0.00270411    0.00270411
     atom   41 type  1   force =    -0.00001216   -0.00004772   -0.00004772
     atom   42 type  1   force =     0.00445855   -0.00281962   -0.00281962
     atom   43 type  1   force =     0.00002569   -0.00003428   -0.00001668
     atom   44 type  1   force =     0.00046301   -0.00014802    0.00005898
     atom   45 type  1   force =     0.00002569   -0.00001668   -0.00003428
     atom   46 type  1   force =     0.00046301    0.00005898   -0.00014802
     atom   47 type  1   force =    -0.00002137   -0.00002219   -0.00002219
     atom   48 type  1   force =     0.00078399    0.00008596    0.00008596
     atom   49 type  1   force =    -0.00029704    0.00007666    0.00028381
     atom   50 type  1   force =    -0.00020343    0.00008359   -0.00019874
     atom   51 type  1   force =     0.00376875   -0.00247280    0.00240638
     atom   52 type  1   force =    -0.00005490   -0.00002848    0.00011489
     atom   53 type  1   force =     0.00001444   -0.00014126   -0.00020446
     atom   54 type  1   force =    -0.00025292   -0.00013976    0.00025791
     atom   55 type  1   force =    -0.00010147   -0.00006127    0.00011340
     atom   56 type  1   force =    -0.00001405   -0.00003825   -0.00005052
     atom   57 type  1   force =    -0.00029704    0.00028381    0.00007666
     atom   58 type  1   force =    -0.00020343   -0.00019874    0.00008359
     atom   59 type  1   force =     0.00001444   -0.00020446   -0.00014126
     atom   60 type  1   force =    -0.00025292    0.00025791   -0.00013976
     atom   61 type  1   force =     0.00376875    0.00240638   -0.00247280
     atom   62 type  1   force =    -0.00005490    0.00011489   -0.00002848
     atom   63 type  1   force =    -0.00010147    0.00011340   -0.00006127
     atom   64 type  1   force =    -0.00001405   -0.00005052   -0.00003825

     Total force =     0.027723     Total SCF correction =     0.000016


     Computing stress (Cartesian axis) and pressure

          total   stress  (Ry/bohr**3)                   (kbar)     P=    0.12
   0.00000059  -0.00000000  -0.00000000          0.09     -0.00     -0.00
  -0.00000000   0.00000089   0.00000477         -0.00      0.13      0.70
  -0.00000000   0.00000477   0.00000089         -0.00      0.70      0.13


     init_run     :     31.14s CPU     31.78s WALL (       1 calls)
     electrons    :    660.84s CPU    675.25s WALL (       1 calls)
     forces       :     10.32s CPU     10.55s WALL (       1 calls)
     stress       :     44.61s CPU     44.82s WALL (       1 calls)

     Called by init_run:
     wfcinit      :     28.00s CPU     28.53s WALL (       1 calls)
     potinit      :      1.06s CPU      1.09s WALL (       1 calls)

     Called by electrons:
     c_bands      :    543.79s CPU    555.29s WALL (      14 calls)
     sum_band     :    100.37s CPU    102.35s WALL (      14 calls)
     v_of_rho     :      5.46s CPU      5.57s WALL (      14 calls)
     newd         :      2.86s CPU      3.73s WALL (      14 calls)
     PAW_pot      :      8.16s CPU      8.16s WALL (      14 calls)
     mix_rho      :      1.23s CPU      1.26s WALL (      14 calls)

     Called by c_bands:
     init_us_2    :      5.52s CPU      5.53s WALL (      93 calls)
     cegterg      :    532.63s CPU    544.10s WALL (      42 calls)

     Called by sum_band:
     sum_band:bec :      0.02s CPU      0.01s WALL (      42 calls)
     addusdens    :      3.55s CPU      4.36s WALL (      14 calls)

     Called by *egterg:
     h_psi        :    474.53s CPU    481.21s WALL (     149 calls)
     s_psi        :     27.32s CPU     27.34s WALL (     149 calls)
     g_psi        :      0.96s CPU      0.94s WALL (     104 calls)
     cdiaghg      :      3.43s CPU      3.43s WALL (     143 calls)

     Called by h_psi:
     h_psi:pot    :    471.54s CPU    478.18s WALL (     149 calls)
     h_psi:calbec :     27.02s CPU     27.02s WALL (     149 calls)
     vloc_psi     :    417.33s CPU    423.96s WALL (     149 calls)
     add_vuspsi   :     27.18s CPU     27.20s WALL (     149 calls)

     General routines
     calbec       :     40.00s CPU     40.03s WALL (     206 calls)
     fft          :      4.63s CPU      4.93s WALL (     209 calls)
     fftw         :    420.78s CPU    428.40s WALL (   36468 calls)

     Parallel routines
     fft_scatt_xy :     70.93s CPU     71.08s WALL (   36677 calls)
     fft_scatt_yz :     75.98s CPU     79.96s WALL (   36677 calls)

     PWSCF        : 12m27.02s CPU    12m42.54s WALL


   This run was terminated on:   6:38: 9  25Oct2021            

=------------------------------------------------------------------------------=
   JOB DONE.
=------------------------------------------------------------------------------=
Note: The following floating-point exceptions are signalling: IEEE_UNDERFLOW_FLAG IEEE_DENORMAL
