
     Program PWSCF v.6.2 (svn rev. 13949:13950) starts on 25Oct2021 at  5:38:58 

     This program is part of the open-source Quantum ESPRESSO suite
     for quantum simulation of materials; please cite
         "P. Giannozzi et al., J. Phys.:Condens. Matter 21 395502 (2009);
         "P. Giannozzi et al., J. Phys.:Condens. Matter 29 465901 (2017);
          URL http://www.quantum-espresso.org", 
     in publications or presentations arising from this work. More details at
     http://www.quantum-espresso.org/quote

     Parallel version (MPI), running on     4 processors

     MPI processes distributed on     1 nodes
     R & G space division:  proc/nbgrp/npool/nimage =       4
     Reading input from headeradd_supercell-00060.in

     Current dimensions of program PWSCF are:
     Max number of different atomic species (ntypx) = 10
     Max number of k-points (npk) =  40000
     Max angular momentum in pseudopotentials (lmaxx) =  3
     Message from routine iosys:
     minimal I/O required, wf_collect reset to FALSE
               file Si.pbe-n-kjpaw_psl.0.1.UPF: wavefunction(s)  3S renormalized

     Subspace diagonalization in iterative solution of the eigenvalue problem:
     a serial algorithm will be used


     Parallelization info
     --------------------
     sticks:   dense  smooth     PW     G-vecs:    dense   smooth      PW
     Min        2372    2372    612               174341   174341   22844
     Max        2374    2374    613               174344   174344   22847
     Sum        9493    9493   2449               697371   697371   91383



     bravais-lattice index     =            0
     lattice parameter (alat)  =      20.6591  a.u.
     unit-cell volume          =    8817.2783 (a.u.)^3
     number of atoms/cell      =           64
     number of atomic types    =            1
     number of electrons       =       256.00
     number of Kohn-Sham states=          128
     kinetic-energy cutoff     =      70.0000  Ry
     charge density cutoff     =     280.0000  Ry
     convergence threshold     =      1.0E-09
     mixing beta               =       0.7000
     number of iterations used =            8  plain     mixing
     Exchange-correlation      =  SLA  PW   PBX  PBC ( 1  4  3  4 0 0)

     celldm(1)=  20.659106  celldm(2)=   0.000000  celldm(3)=   0.000000
     celldm(4)=   0.000000  celldm(5)=   0.000000  celldm(6)=   0.000000

     crystal axes: (cart. coord. in units of alat)
               a(1) = (   1.000000   0.000000   0.000000 )  
               a(2) = (   0.000000   1.000000   0.000000 )  
               a(3) = (   0.000000   0.000000   1.000000 )  

     reciprocal axes: (cart. coord. in units 2 pi/alat)
               b(1) = (  1.000000  0.000000  0.000000 )  
               b(2) = (  0.000000  1.000000  0.000000 )  
               b(3) = (  0.000000  0.000000  1.000000 )  


     PseudoPot. # 1 for Si read from file:
     /home/uezono/pseudo/Si.pbe-n-kjpaw_psl.0.1.UPF
     MD5 check sum: 0810ef13ebffcf5dbabd57b297315270
     Pseudo is Projector augmented-wave + core cor, Zval =  4.0
     Generated using "atomic" code by A. Dal Corso  v.5.0.2 svn rev. 9415
     Shape of augmentation charge: PSQ
     Using radial grid of 1141 points,  4 beta functions with: 
                l(1) =   0
                l(2) =   0
                l(3) =   1
                l(4) =   1
     Q(r) pseudized with 0 coefficients 


     atomic species   valence    mass     pseudopotential
        Si             4.00    28.08550     Si( 1.00)

     No symmetry found



   Cartesian axes

     site n.     atom                  positions (alat units)
         1           Si  tau(   1) = (   0.4404043   0.4375000   0.4375000  )
         2           Si  tau(   2) = (   0.9375000   0.4375000   0.4375000  )
         3           Si  tau(   3) = (   0.4375000   0.9375000   0.4375000  )
         4           Si  tau(   4) = (   0.9375000   0.9375000   0.4375000  )
         5           Si  tau(   5) = (   0.4375000   0.4375000   0.9375000  )
         6           Si  tau(   6) = (   0.9375000   0.4375000   0.9375000  )
         7           Si  tau(   7) = (   0.4375000   0.9375000   0.9375000  )
         8           Si  tau(   8) = (   0.9375000   0.9375000   0.9375000  )
         9           Si  tau(   9) = (   0.4375000   0.1875000   0.1875000  )
        10           Si  tau(  10) = (   0.9375000   0.1875000   0.1875000  )
        11           Si  tau(  11) = (   0.4375000   0.6875000   0.1875000  )
        12           Si  tau(  12) = (   0.9375000   0.6875000   0.1875000  )
        13           Si  tau(  13) = (   0.4375000   0.1875000   0.6875000  )
        14           Si  tau(  14) = (   0.9375000   0.1875000   0.6875000  )
        15           Si  tau(  15) = (   0.4375000   0.6875000   0.6875000  )
        16           Si  tau(  16) = (   0.9375000   0.6875000   0.6875000  )
        17           Si  tau(  17) = (   0.1875000   0.4375000   0.1875000  )
        18           Si  tau(  18) = (   0.6875000   0.4375000   0.1875000  )
        19           Si  tau(  19) = (   0.1875000   0.9375000   0.1875000  )
        20           Si  tau(  20) = (   0.6875000   0.9375000   0.1875000  )
        21           Si  tau(  21) = (   0.1875000   0.4375000   0.6875000  )
        22           Si  tau(  22) = (   0.6875000   0.4375000   0.6875000  )
        23           Si  tau(  23) = (   0.1875000   0.9375000   0.6875000  )
        24           Si  tau(  24) = (   0.6875000   0.9375000   0.6875000  )
        25           Si  tau(  25) = (   0.1875000   0.1875000   0.4375000  )
        26           Si  tau(  26) = (   0.6875000   0.1875000   0.4375000  )
        27           Si  tau(  27) = (   0.1875000   0.6875000   0.4375000  )
        28           Si  tau(  28) = (   0.6875000   0.6875000   0.4375000  )
        29           Si  tau(  29) = (   0.1875000   0.1875000   0.9375000  )
        30           Si  tau(  30) = (   0.6875000   0.1875000   0.9375000  )
        31           Si  tau(  31) = (   0.1875000   0.6875000   0.9375000  )
        32           Si  tau(  32) = (   0.6875000   0.6875000   0.9375000  )
        33           Si  tau(  33) = (   0.0625000   0.0625000   0.0625000  )
        34           Si  tau(  34) = (   0.5625000   0.0654043   0.0625000  )
        35           Si  tau(  35) = (   0.0625000   0.5625000   0.0625000  )
        36           Si  tau(  36) = (   0.5625000   0.5625000   0.0625000  )
        37           Si  tau(  37) = (   0.0625000   0.0625000   0.5625000  )
        38           Si  tau(  38) = (   0.5625000   0.0625000   0.5625000  )
        39           Si  tau(  39) = (   0.0625000   0.5625000   0.5625000  )
        40           Si  tau(  40) = (   0.5625000   0.5625000   0.5625000  )
        41           Si  tau(  41) = (   0.0625000   0.3125000   0.3125000  )
        42           Si  tau(  42) = (   0.5625000   0.3125000   0.3125000  )
        43           Si  tau(  43) = (   0.0625000   0.8125000   0.3125000  )
        44           Si  tau(  44) = (   0.5625000   0.8125000   0.3125000  )
        45           Si  tau(  45) = (   0.0625000   0.3125000   0.8125000  )
        46           Si  tau(  46) = (   0.5625000   0.3125000   0.8125000  )
        47           Si  tau(  47) = (   0.0625000   0.8125000   0.8125000  )
        48           Si  tau(  48) = (   0.5625000   0.8125000   0.8125000  )
        49           Si  tau(  49) = (   0.3125000   0.0625000   0.3125000  )
        50           Si  tau(  50) = (   0.8125000   0.0625000   0.3125000  )
        51           Si  tau(  51) = (   0.3125000   0.5625000   0.3125000  )
        52           Si  tau(  52) = (   0.8125000   0.5625000   0.3125000  )
        53           Si  tau(  53) = (   0.3125000   0.0625000   0.8125000  )
        54           Si  tau(  54) = (   0.8125000   0.0625000   0.8125000  )
        55           Si  tau(  55) = (   0.3125000   0.5625000   0.8125000  )
        56           Si  tau(  56) = (   0.8125000   0.5625000   0.8125000  )
        57           Si  tau(  57) = (   0.3125000   0.3125000   0.0625000  )
        58           Si  tau(  58) = (   0.8125000   0.3125000   0.0625000  )
        59           Si  tau(  59) = (   0.3125000   0.8125000   0.0625000  )
        60           Si  tau(  60) = (   0.8125000   0.8125000   0.0625000  )
        61           Si  tau(  61) = (   0.3125000   0.3125000   0.5625000  )
        62           Si  tau(  62) = (   0.8125000   0.3125000   0.5625000  )
        63           Si  tau(  63) = (   0.3125000   0.8125000   0.5625000  )
        64           Si  tau(  64) = (   0.8125000   0.8125000   0.5625000  )

     number of k points=     4
                       cart. coord. in units 2pi/alat
        k(    1) = (   0.2500000   0.2500000   0.2500000), wk =   0.5000000
        k(    2) = (  -0.2500000  -0.2500000   0.2500000), wk =   0.5000000
        k(    3) = (  -0.2500000   0.2500000  -0.2500000), wk =   0.5000000
        k(    4) = (   0.2500000  -0.2500000  -0.2500000), wk =   0.5000000

     Dense  grid:   697371 G-vectors     FFT dimensions: ( 120, 120, 120)

     Estimated max dynamical RAM per process >       1.08 GB

     Estimated total dynamical RAM >       4.33 GB

     Initial potential from superposition of free atoms

     starting charge  255.96421, renormalised to  256.00000
     Starting wfc are  256 randomized atomic wfcs
     Checking if some PAW data can be deallocated... 

     total cpu time spent up to now is       41.1 secs

     Self-consistent Calculation

     iteration #  1     ecut=    70.00 Ry     beta= 0.70
     Davidson diagonalization with overlap
     ethr =  1.00E-02,  avg # of iterations =  2.0

     Threshold (ethr) on eigenvalues was too large:
     Diagonalizing with lowered threshold

     Davidson diagonalization with overlap
     ethr =  6.98E-04,  avg # of iterations =  1.0

     total cpu time spent up to now is      155.8 secs

     total energy              =   -2990.46248532 Ry
     Harris-Foulkes estimate   =   -2990.88043973 Ry
     estimated scf accuracy    <       1.76640047 Ry

     iteration #  2     ecut=    70.00 Ry     beta= 0.70
     Davidson diagonalization with overlap
     ethr =  6.90E-04,  avg # of iterations =  1.0

     total cpu time spent up to now is      204.5 secs

     total energy              =   -2990.52628171 Ry
     Harris-Foulkes estimate   =   -2990.53059865 Ry
     estimated scf accuracy    <       0.07828584 Ry

     iteration #  3     ecut=    70.00 Ry     beta= 0.70
     Davidson diagonalization with overlap
     ethr =  3.06E-05,  avg # of iterations =  2.5

     total cpu time spent up to now is      261.9 secs

     total energy              =   -2990.53497526 Ry
     Harris-Foulkes estimate   =   -2990.53564795 Ry
     estimated scf accuracy    <       0.00179327 Ry

     iteration #  4     ecut=    70.00 Ry     beta= 0.70
     Davidson diagonalization with overlap
     ethr =  7.00E-07,  avg # of iterations =  4.0

     total cpu time spent up to now is      344.8 secs

     total energy              =   -2990.53554518 Ry
     Harris-Foulkes estimate   =   -2990.53625495 Ry
     estimated scf accuracy    <       0.00200041 Ry

     iteration #  5     ecut=    70.00 Ry     beta= 0.70
     Davidson diagonalization with overlap
     ethr =  7.00E-07,  avg # of iterations =  3.0

     total cpu time spent up to now is      406.1 secs

     total energy              =   -2990.53588436 Ry
     Harris-Foulkes estimate   =   -2990.53595574 Ry
     estimated scf accuracy    <       0.00020458 Ry

     iteration #  6     ecut=    70.00 Ry     beta= 0.70
     Davidson diagonalization with overlap
     ethr =  7.99E-08,  avg # of iterations =  3.0

     total cpu time spent up to now is      470.9 secs

     total energy              =   -2990.53591697 Ry
     Harris-Foulkes estimate   =   -2990.53594066 Ry
     estimated scf accuracy    <       0.00006749 Ry

     iteration #  7     ecut=    70.00 Ry     beta= 0.70
     Davidson diagonalization with overlap
     ethr =  2.64E-08,  avg # of iterations =  2.0

     total cpu time spent up to now is      530.8 secs

     total energy              =   -2990.53592821 Ry
     Harris-Foulkes estimate   =   -2990.53592869 Ry
     estimated scf accuracy    <       0.00000089 Ry

     iteration #  8     ecut=    70.00 Ry     beta= 0.70
     Davidson diagonalization with overlap
     ethr =  3.46E-10,  avg # of iterations =  4.0

     total cpu time spent up to now is      621.4 secs

     total energy              =   -2990.53592913 Ry
     Harris-Foulkes estimate   =   -2990.53592939 Ry
     estimated scf accuracy    <       0.00000050 Ry

     iteration #  9     ecut=    70.00 Ry     beta= 0.70
     Davidson diagonalization with overlap
     ethr =  1.94E-10,  avg # of iterations =  3.0

     total cpu time spent up to now is      681.9 secs

     total energy              =   -2990.53592908 Ry
     Harris-Foulkes estimate   =   -2990.53592922 Ry
     estimated scf accuracy    <       0.00000018 Ry

     iteration # 10     ecut=    70.00 Ry     beta= 0.70
     Davidson diagonalization with overlap
     ethr =  6.84E-11,  avg # of iterations =  2.0

     total cpu time spent up to now is      741.3 secs

     total energy              =   -2990.53592904 Ry
     Harris-Foulkes estimate   =   -2990.53592911 Ry
     estimated scf accuracy    <       0.00000003 Ry

     iteration # 11     ecut=    70.00 Ry     beta= 0.70
     Davidson diagonalization with overlap
     ethr =  9.78E-12,  avg # of iterations =  3.0

     total cpu time spent up to now is      807.7 secs

     total energy              =   -2990.53592905 Ry
     Harris-Foulkes estimate   =   -2990.53592905 Ry
     estimated scf accuracy    <          4.4E-09 Ry

     iteration # 12     ecut=    70.00 Ry     beta= 0.70
     Davidson diagonalization with overlap
     ethr =  1.70E-12,  avg # of iterations =  3.0

     total cpu time spent up to now is      878.4 secs

     total energy              =   -2990.53592905 Ry
     Harris-Foulkes estimate   =   -2990.53592905 Ry
     estimated scf accuracy    <          1.5E-09 Ry

     iteration # 13     ecut=    70.00 Ry     beta= 0.70
     Davidson diagonalization with overlap
     ethr =  5.80E-13,  avg # of iterations =  3.0

     total cpu time spent up to now is      943.5 secs

     End of self-consistent calculation

          k = 0.2500 0.2500 0.2500 ( 87251 PWs)   bands (ev):

    -5.6250  -5.1006  -5.0963  -5.0922  -4.6008  -4.5966  -4.5927  -4.1631
    -4.0677  -4.0632  -4.0592  -3.6567  -3.6498  -3.6470  -3.6449  -3.6444
    -3.6396  -3.4588  -3.4548  -3.4506  -2.9638  -2.9578  -2.9541  -2.5931
    -2.5892  -2.5856  -2.4305  -2.4233  -2.4207  -2.4191  -2.4184  -2.4126
    -0.8885  -0.8818  -0.8781  -0.8766  -0.8751  -0.8699  -0.7839  -0.7805
    -0.7770  -0.6673  -0.6622  -0.6569  -0.5838  -0.5752  -0.5691   0.1263
     0.2014   0.2063   0.2106   0.2133   0.2145   0.2184   1.0794   1.0861
     1.0906   1.4137   1.4186   1.4226   2.0243   2.0264   2.0279   2.0294
     2.0320   2.0342   2.0850   2.0887   2.0916   2.6383   2.6400   2.6418
     2.7369   2.7395   2.7416   2.7442   2.7468   2.7492   2.7926   2.7964
     2.8011   3.1011   3.1045   3.1078   3.1085   3.1099   3.1136   3.3692
     3.3720   3.3740   3.3818   3.3861   3.3907   3.7302   3.7349   3.7384
     3.7539   3.7568   3.7592   3.8357   3.8405   3.8423   4.1055   4.1119
     4.1137   4.1150   4.1169   4.1221   4.1494   4.1550   4.1570   4.4129
     4.4679   4.4708   4.4744   4.7100   4.7151   4.7181   4.7730   4.7790
     4.7848   4.9319   4.9406   5.2378   5.2445   5.2484   5.7191   5.7289

          k =-0.2500-0.2500 0.2500 ( 87251 PWs)   bands (ev):

    -5.6250  -5.1001  -5.0970  -5.0919  -4.6003  -4.5974  -4.5925  -4.1632
    -4.0670  -4.0643  -4.0588  -3.6557  -3.6492  -3.6489  -3.6457  -3.6441
    -3.6386  -3.4590  -3.4548  -3.4505  -2.9627  -2.9597  -2.9533  -2.5930
    -2.5891  -2.5856  -2.4295  -2.4233  -2.4224  -2.4193  -2.4176  -2.4124
    -0.8881  -0.8820  -0.8797  -0.8765  -0.8741  -0.8696  -0.7838  -0.7803
    -0.7770  -0.6672  -0.6624  -0.6569  -0.5836  -0.5760  -0.5686   0.1263
     0.2027   0.2055   0.2087   0.2122   0.2159   0.2196   1.0798   1.0850
     1.0912   1.4140   1.4181   1.4228   2.0241   2.0266   2.0283   2.0296
     2.0309   2.0347   2.0851   2.0881   2.0921   2.6378   2.6400   2.6424
     2.7364   2.7390   2.7425   2.7444   2.7474   2.7483   2.7927   2.7957
     2.8015   3.1020   3.1046   3.1065   3.1072   3.1099   3.1152   3.3698
     3.3718   3.3731   3.3819   3.3868   3.3904   3.7308   3.7351   3.7378
     3.7521   3.7563   3.7610   3.8362   3.8392   3.8431   4.1063   4.1119
     4.1131   4.1149   4.1166   4.1225   4.1499   4.1534   4.1580   4.4132
     4.4687   4.4711   4.4731   4.7105   4.7141   4.7186   4.7733   4.7786
     4.7851   4.9319   4.9406   5.2383   5.2433   5.2491   5.7191   5.7288

          k =-0.2500 0.2500-0.2500 ( 87251 PWs)   bands (ev):

    -5.6251  -5.0989  -5.0979  -5.0919  -4.5994  -4.5985  -4.5924  -4.1643
    -4.0663  -4.0653  -4.0594  -3.6513  -3.6506  -3.6496  -3.6479  -3.6406
    -3.6396  -3.4576  -3.4548  -3.4498  -2.9635  -2.9621  -2.9557  -2.5924
    -2.5891  -2.5853  -2.4257  -2.4244  -2.4228  -2.4218  -2.4159  -2.4121
    -0.8856  -0.8833  -0.8810  -0.8793  -0.8741  -0.8700  -0.7848  -0.7807
    -0.7781  -0.6678  -0.6625  -0.6614  -0.5770  -0.5722  -0.5660   0.1300
     0.2020   0.2053   0.2065   0.2095   0.2154   0.2169   1.0831   1.0887
     1.0915   1.4155   1.4186   1.4207   2.0251   2.0265   2.0284   2.0296
     2.0311   2.0331   2.0849   2.0862   2.0905   2.6401   2.6424   2.6436
     2.7357   2.7379   2.7414   2.7440   2.7452   2.7463   2.7916   2.7938
     2.7975   3.1023   3.1047   3.1061   3.1079   3.1120   3.1135   3.3689
     3.3695   3.3724   3.3826   3.3853   3.3878   3.7337   3.7350   3.7405
     3.7560   3.7599   3.7636   3.8348   3.8388   3.8413   4.1117   4.1131
     4.1150   4.1169   4.1192   4.1255   4.1482   4.1529   4.1563   4.4172
     4.4669   4.4679   4.4711   4.7086   4.7132   4.7155   4.7792   4.7844
     4.7878   4.9324   4.9376   5.2356   5.2418   5.2449   5.7188   5.7243

          k = 0.2500-0.2500-0.2500 ( 87251 PWs)   bands (ev):

    -5.6250  -5.0994  -5.0966  -5.0933  -4.5994  -4.5969  -4.5937  -4.1620
    -4.0660  -4.0634  -4.0596  -3.6550  -3.6523  -3.6466  -3.6462  -3.6439
    -3.6413  -3.4595  -3.4548  -3.4521  -2.9593  -2.9582  -2.9525  -2.5936
    -2.5894  -2.5860  -2.4292  -2.4250  -2.4206  -2.4201  -2.4168  -2.4146
    -0.8866  -0.8812  -0.8778  -0.8774  -0.8731  -0.8713  -0.7824  -0.7797
    -0.7762  -0.6632  -0.6619  -0.6561  -0.5883  -0.5778  -0.5749   0.1226
     0.2066   0.2094   0.2109   0.2117   0.2160   0.2190   1.0761   1.0849
     1.0879   1.4152   1.4184   1.4215   2.0242   2.0272   2.0284   2.0302
     2.0321   2.0331   2.0873   2.0890   2.0920   2.6366   2.6377   2.6401
     2.7390   2.7406   2.7445   2.7454   2.7477   2.7491   2.7953   2.7992
     2.8023   3.1031   3.1050   3.1074   3.1082   3.1086   3.1122   3.3713
     3.3733   3.3742   3.3849   3.3870   3.3904   3.7295   3.7330   3.7357
     3.7493   3.7536   3.7567   3.8385   3.8408   3.8427   4.1028   4.1083
     4.1124   4.1145   4.1149   4.1159   4.1527   4.1551   4.1575   4.4091
     4.4709   4.4739   4.4750   4.7139   4.7164   4.7190   4.7674   4.7766
     4.7783   4.9350   4.9399   5.2429   5.2462   5.2499   5.7235   5.7292

     highest occupied level (ev):     5.7292

!    total energy              =   -2990.53592906 Ry
     Harris-Foulkes estimate   =   -2990.53592905 Ry
     estimated scf accuracy    <          4.6E-10 Ry

     total all-electron energy =    -37124.671482 Ry

     The total energy is the sum of the following terms:

     one-electron contribution =     178.60396707 Ry
     hartree contribution      =      35.70181802 Ry
     xc contribution           =    -391.44049815 Ry
     ewald contribution        =    -534.00620654 Ry
     one-center paw contrib.   =   -2279.39500945 Ry

     convergence has been achieved in  13 iterations

     Forces acting on atoms (cartesian axes, Ry/au):

     atom    1 type  1   force =    -0.01583684    0.00002786    0.00002491
     atom    2 type  1   force =     0.00005255   -0.00002236    0.00003064
     atom    3 type  1   force =     0.00010579   -0.00005895    0.00003771
     atom    4 type  1   force =     0.00002093    0.00025284    0.00002751
     atom    5 type  1   force =     0.00009266   -0.00001387    0.00003864
     atom    6 type  1   force =     0.00001902    0.00002734    0.00002897
     atom    7 type  1   force =     0.00200668    0.00381028    0.00248249
     atom    8 type  1   force =     0.00006125   -0.00005840    0.00005145
     atom    9 type  1   force =    -0.00323191    0.00404233    0.00282035
     atom   10 type  1   force =    -0.00003976   -0.00005117    0.00005966
     atom   11 type  1   force =    -0.00056203    0.00009593   -0.00007029
     atom   12 type  1   force =    -0.00002481    0.00003514    0.00001677
     atom   13 type  1   force =    -0.00057369   -0.00017058    0.00014812
     atom   14 type  1   force =    -0.00002774    0.00024633    0.00003780
     atom   15 type  1   force =    -0.00055465   -0.00008761   -0.00009026
     atom   16 type  1   force =    -0.00003200   -0.00003134    0.00002175
     atom   17 type  1   force =     0.00020483   -0.00008242    0.00019905
     atom   18 type  1   force =     0.00020000   -0.00012737   -0.00027034
     atom   19 type  1   force =     0.00000474   -0.00006787   -0.00012787
     atom   20 type  1   force =    -0.00243901    0.00380170   -0.00240621
     atom   21 type  1   force =     0.00019992    0.00008757   -0.00025839
     atom   22 type  1   force =     0.00020939    0.00014136    0.00020640
     atom   23 type  1   force =     0.00001487    0.00026218    0.00004918
     atom   24 type  1   force =    -0.00000951   -0.00004918   -0.00011376
     atom   25 type  1   force =     0.00025889    0.00048308   -0.00013767
     atom   26 type  1   force =     0.00028855   -0.00029345   -0.00015293
     atom   27 type  1   force =     0.00026240   -0.00024881    0.00007866
     atom   28 type  1   force =     0.00026398    0.00025817    0.00008910
     atom   29 type  1   force =     0.00008048   -0.00013741   -0.00005959
     atom   30 type  1   force =     0.00274717    0.00400621   -0.00271342
     atom   31 type  1   force =     0.00006662    0.00010292   -0.00001754
     atom   32 type  1   force =     0.00008121   -0.00008966   -0.00002852
     atom   33 type  1   force =    -0.00002218    0.00008621    0.00003140
     atom   34 type  1   force =     0.00025560   -0.01583533    0.00002832
     atom   35 type  1   force =     0.00002526    0.00001901    0.00002526
     atom   36 type  1   force =    -0.00006044    0.00007105    0.00003931
     atom   37 type  1   force =     0.00002612   -0.00044970    0.00002645
     atom   38 type  1   force =    -0.00006079    0.00009316    0.00005035
     atom   39 type  1   force =    -0.00001332    0.00006168    0.00003810
     atom   40 type  1   force =     0.00392867    0.00269696    0.00270328
     atom   41 type  1   force =    -0.00002274    0.00000396   -0.00011471
     atom   42 type  1   force =     0.00381406   -0.00246604   -0.00247343
     atom   43 type  1   force =     0.00001645    0.00001789    0.00005042
     atom   44 type  1   force =    -0.00017080    0.00019219   -0.00027690
     atom   45 type  1   force =     0.00003492    0.00001502    0.00005124
     atom   46 type  1   force =     0.00005377    0.00018750   -0.00027107
     atom   47 type  1   force =    -0.00001255    0.00001148   -0.00010844
     atom   48 type  1   force =     0.00036553    0.00020425    0.00019786
     atom   49 type  1   force =     0.00005497   -0.00056555   -0.00006272
     atom   50 type  1   force =     0.00013728   -0.00054935    0.00013840
     atom   51 type  1   force =     0.00382063   -0.00248348    0.00247211
     atom   52 type  1   force =    -0.00000329   -0.00003836    0.00004749
     atom   53 type  1   force =     0.00014281   -0.00055114   -0.00008196
     atom   54 type  1   force =    -0.00013585   -0.00055861    0.00014493
     atom   55 type  1   force =    -0.00006904   -0.00005170    0.00002759
     atom   56 type  1   force =     0.00001855   -0.00003053    0.00003606
     atom   57 type  1   force =    -0.00029212    0.00028880    0.00007668
     atom   58 type  1   force =     0.00026065    0.00026637   -0.00014055
     atom   59 type  1   force =     0.00047984    0.00025931    0.00008297
     atom   60 type  1   force =    -0.00024869    0.00026202   -0.00013992
     atom   61 type  1   force =     0.00388658    0.00252297   -0.00247263
     atom   62 type  1   force =    -0.00008897    0.00008011   -0.00004753
     atom   63 type  1   force =    -0.00013561    0.00008009   -0.00004235
     atom   64 type  1   force =     0.00010470    0.00006898   -0.00003841

     Total force =     0.027111     Total SCF correction =     0.000042


     Computing stress (Cartesian axis) and pressure

          total   stress  (Ry/bohr**3)                   (kbar)     P=    0.12
   0.00000074   0.00000000  -0.00000238          0.11      0.00     -0.35
   0.00000000   0.00000074   0.00000238          0.00      0.11      0.35
  -0.00000238   0.00000238   0.00000089         -0.35      0.35      0.13


     init_run     :     40.20s CPU     40.96s WALL (       1 calls)
     electrons    :    882.32s CPU    902.46s WALL (       1 calls)
     forces       :     11.64s CPU     11.85s WALL (       1 calls)
     stress       :     56.68s CPU     56.96s WALL (       1 calls)

     Called by init_run:
     wfcinit      :     37.12s CPU     37.80s WALL (       1 calls)
     potinit      :      1.08s CPU      1.09s WALL (       1 calls)

     Called by electrons:
     c_bands      :    733.52s CPU    750.22s WALL (      14 calls)
     sum_band     :    132.18s CPU    134.71s WALL (      14 calls)
     v_of_rho     :      5.42s CPU      5.57s WALL (      14 calls)
     newd         :      2.94s CPU      3.72s WALL (      14 calls)
     PAW_pot      :      8.10s CPU      8.09s WALL (      14 calls)
     mix_rho      :      1.20s CPU      1.26s WALL (      14 calls)

     Called by c_bands:
     init_us_2    :      7.76s CPU      7.77s WALL (     124 calls)
     cegterg      :    718.70s CPU    735.36s WALL (      56 calls)

     Called by sum_band:
     sum_band:bec :      0.03s CPU      0.02s WALL (      56 calls)
     addusdens    :      3.55s CPU      4.36s WALL (      14 calls)

     Called by *egterg:
     h_psi        :    637.86s CPU    648.13s WALL (     206 calls)
     s_psi        :     36.79s CPU     36.76s WALL (     206 calls)
     g_psi        :      1.25s CPU      1.25s WALL (     146 calls)
     cdiaghg      :      4.91s CPU      4.93s WALL (     198 calls)

     Called by h_psi:
     h_psi:pot    :    633.83s CPU    644.03s WALL (     206 calls)
     h_psi:calbec :     36.62s CPU     36.68s WALL (     206 calls)
     vloc_psi     :    560.61s CPU    570.76s WALL (     206 calls)
     add_vuspsi   :     36.60s CPU     36.58s WALL (     206 calls)

     General routines
     calbec       :     53.82s CPU     53.88s WALL (     282 calls)
     fft          :      4.62s CPU      4.88s WALL (     209 calls)
     fftw         :    566.41s CPU    577.99s WALL (   49052 calls)

     Parallel routines
     fft_scatt_xy :     95.96s CPU     96.04s WALL (   49261 calls)
     fft_scatt_yz :    105.03s CPU    111.20s WALL (   49261 calls)

     PWSCF        : 16m30.95s CPU    16m52.37s WALL


   This run was terminated on:   5:55:50  25Oct2021            

=------------------------------------------------------------------------------=
   JOB DONE.
=------------------------------------------------------------------------------=
Note: The following floating-point exceptions are signalling: IEEE_UNDERFLOW_FLAG IEEE_DENORMAL
