
     Program PWSCF v.6.2 (svn rev. 13949:13950) starts on 25Oct2021 at  1:44:27 

     This program is part of the open-source Quantum ESPRESSO suite
     for quantum simulation of materials; please cite
         "P. Giannozzi et al., J. Phys.:Condens. Matter 21 395502 (2009);
         "P. Giannozzi et al., J. Phys.:Condens. Matter 29 465901 (2017);
          URL http://www.quantum-espresso.org", 
     in publications or presentations arising from this work. More details at
     http://www.quantum-espresso.org/quote

     Parallel version (MPI), running on     4 processors

     MPI processes distributed on     1 nodes
     R & G space division:  proc/nbgrp/npool/nimage =       4
     Reading input from headeradd_supercell-00045.in

     Current dimensions of program PWSCF are:
     Max number of different atomic species (ntypx) = 10
     Max number of k-points (npk) =  40000
     Max angular momentum in pseudopotentials (lmaxx) =  3
     Message from routine iosys:
     minimal I/O required, wf_collect reset to FALSE
               file Si.pbe-n-kjpaw_psl.0.1.UPF: wavefunction(s)  3S renormalized

     Subspace diagonalization in iterative solution of the eigenvalue problem:
     a serial algorithm will be used


     Parallelization info
     --------------------
     sticks:   dense  smooth     PW     G-vecs:    dense   smooth      PW
     Min        2372    2372    612               174341   174341   22844
     Max        2374    2374    613               174344   174344   22847
     Sum        9493    9493   2449               697371   697371   91383



     bravais-lattice index     =            0
     lattice parameter (alat)  =      20.6591  a.u.
     unit-cell volume          =    8817.2783 (a.u.)^3
     number of atoms/cell      =           64
     number of atomic types    =            1
     number of electrons       =       256.00
     number of Kohn-Sham states=          128
     kinetic-energy cutoff     =      70.0000  Ry
     charge density cutoff     =     280.0000  Ry
     convergence threshold     =      1.0E-09
     mixing beta               =       0.7000
     number of iterations used =            8  plain     mixing
     Exchange-correlation      =  SLA  PW   PBX  PBC ( 1  4  3  4 0 0)

     celldm(1)=  20.659106  celldm(2)=   0.000000  celldm(3)=   0.000000
     celldm(4)=   0.000000  celldm(5)=   0.000000  celldm(6)=   0.000000

     crystal axes: (cart. coord. in units of alat)
               a(1) = (   1.000000   0.000000   0.000000 )  
               a(2) = (   0.000000   1.000000   0.000000 )  
               a(3) = (   0.000000   0.000000   1.000000 )  

     reciprocal axes: (cart. coord. in units 2 pi/alat)
               b(1) = (  1.000000  0.000000  0.000000 )  
               b(2) = (  0.000000  1.000000  0.000000 )  
               b(3) = (  0.000000  0.000000  1.000000 )  


     PseudoPot. # 1 for Si read from file:
     /home/uezono/pseudo/Si.pbe-n-kjpaw_psl.0.1.UPF
     MD5 check sum: 0810ef13ebffcf5dbabd57b297315270
     Pseudo is Projector augmented-wave + core cor, Zval =  4.0
     Generated using "atomic" code by A. Dal Corso  v.5.0.2 svn rev. 9415
     Shape of augmentation charge: PSQ
     Using radial grid of 1141 points,  4 beta functions with: 
                l(1) =   0
                l(2) =   0
                l(3) =   1
                l(4) =   1
     Q(r) pseudized with 0 coefficients 


     atomic species   valence    mass     pseudopotential
        Si             4.00    28.08550     Si( 1.00)

     No symmetry found



   Cartesian axes

     site n.     atom                  positions (alat units)
         1           Si  tau(   1) = (   0.4404043   0.4375000   0.4375000  )
         2           Si  tau(   2) = (   0.9375000   0.4375000   0.4375000  )
         3           Si  tau(   3) = (   0.4375000   0.9375000   0.4375000  )
         4           Si  tau(   4) = (   0.9375000   0.9375000   0.4375000  )
         5           Si  tau(   5) = (   0.4375000   0.4375000   0.9375000  )
         6           Si  tau(   6) = (   0.9375000   0.4375000   0.9375000  )
         7           Si  tau(   7) = (   0.4375000   0.9375000   0.9375000  )
         8           Si  tau(   8) = (   0.9375000   0.9375000   0.9375000  )
         9           Si  tau(   9) = (   0.4375000   0.1875000   0.1875000  )
        10           Si  tau(  10) = (   0.9375000   0.1875000   0.1875000  )
        11           Si  tau(  11) = (   0.4375000   0.6875000   0.1875000  )
        12           Si  tau(  12) = (   0.9375000   0.6875000   0.1875000  )
        13           Si  tau(  13) = (   0.4375000   0.1875000   0.6875000  )
        14           Si  tau(  14) = (   0.9375000   0.1875000   0.6875000  )
        15           Si  tau(  15) = (   0.4375000   0.6875000   0.6875000  )
        16           Si  tau(  16) = (   0.9375000   0.6875000   0.6875000  )
        17           Si  tau(  17) = (   0.1875000   0.4375000   0.1875000  )
        18           Si  tau(  18) = (   0.6875000   0.4375000   0.1875000  )
        19           Si  tau(  19) = (   0.1845957   0.9375000   0.1875000  )
        20           Si  tau(  20) = (   0.6875000   0.9375000   0.1875000  )
        21           Si  tau(  21) = (   0.1875000   0.4375000   0.6875000  )
        22           Si  tau(  22) = (   0.6875000   0.4375000   0.6875000  )
        23           Si  tau(  23) = (   0.1875000   0.9375000   0.6875000  )
        24           Si  tau(  24) = (   0.6875000   0.9375000   0.6875000  )
        25           Si  tau(  25) = (   0.1875000   0.1875000   0.4375000  )
        26           Si  tau(  26) = (   0.6875000   0.1875000   0.4375000  )
        27           Si  tau(  27) = (   0.1875000   0.6875000   0.4375000  )
        28           Si  tau(  28) = (   0.6875000   0.6875000   0.4375000  )
        29           Si  tau(  29) = (   0.1875000   0.1875000   0.9375000  )
        30           Si  tau(  30) = (   0.6875000   0.1875000   0.9375000  )
        31           Si  tau(  31) = (   0.1875000   0.6875000   0.9375000  )
        32           Si  tau(  32) = (   0.6875000   0.6875000   0.9375000  )
        33           Si  tau(  33) = (   0.0625000   0.0625000   0.0625000  )
        34           Si  tau(  34) = (   0.5625000   0.0625000   0.0625000  )
        35           Si  tau(  35) = (   0.0625000   0.5625000   0.0625000  )
        36           Si  tau(  36) = (   0.5625000   0.5625000   0.0625000  )
        37           Si  tau(  37) = (   0.0625000   0.0625000   0.5625000  )
        38           Si  tau(  38) = (   0.5625000   0.0625000   0.5625000  )
        39           Si  tau(  39) = (   0.0625000   0.5625000   0.5625000  )
        40           Si  tau(  40) = (   0.5625000   0.5625000   0.5625000  )
        41           Si  tau(  41) = (   0.0625000   0.3125000   0.3125000  )
        42           Si  tau(  42) = (   0.5625000   0.3125000   0.3125000  )
        43           Si  tau(  43) = (   0.0625000   0.8125000   0.3125000  )
        44           Si  tau(  44) = (   0.5625000   0.8125000   0.3125000  )
        45           Si  tau(  45) = (   0.0625000   0.3125000   0.8125000  )
        46           Si  tau(  46) = (   0.5625000   0.3125000   0.8125000  )
        47           Si  tau(  47) = (   0.0625000   0.8125000   0.8125000  )
        48           Si  tau(  48) = (   0.5625000   0.8125000   0.8125000  )
        49           Si  tau(  49) = (   0.3125000   0.0625000   0.3125000  )
        50           Si  tau(  50) = (   0.8125000   0.0625000   0.3125000  )
        51           Si  tau(  51) = (   0.3125000   0.5625000   0.3125000  )
        52           Si  tau(  52) = (   0.8125000   0.5625000   0.3125000  )
        53           Si  tau(  53) = (   0.3125000   0.0625000   0.8125000  )
        54           Si  tau(  54) = (   0.8125000   0.0625000   0.8125000  )
        55           Si  tau(  55) = (   0.3125000   0.5625000   0.8125000  )
        56           Si  tau(  56) = (   0.8125000   0.5625000   0.8125000  )
        57           Si  tau(  57) = (   0.3125000   0.3125000   0.0625000  )
        58           Si  tau(  58) = (   0.8125000   0.3125000   0.0625000  )
        59           Si  tau(  59) = (   0.3125000   0.8125000   0.0625000  )
        60           Si  tau(  60) = (   0.8125000   0.8125000   0.0625000  )
        61           Si  tau(  61) = (   0.3125000   0.3125000   0.5625000  )
        62           Si  tau(  62) = (   0.8125000   0.3125000   0.5625000  )
        63           Si  tau(  63) = (   0.3125000   0.8125000   0.5625000  )
        64           Si  tau(  64) = (   0.8125000   0.8125000   0.5625000  )

     number of k points=     4
                       cart. coord. in units 2pi/alat
        k(    1) = (   0.2500000   0.2500000   0.2500000), wk =   0.5000000
        k(    2) = (  -0.2500000  -0.2500000   0.2500000), wk =   0.5000000
        k(    3) = (  -0.2500000   0.2500000  -0.2500000), wk =   0.5000000
        k(    4) = (   0.2500000  -0.2500000  -0.2500000), wk =   0.5000000

     Dense  grid:   697371 G-vectors     FFT dimensions: ( 120, 120, 120)

     Estimated max dynamical RAM per process >       1.08 GB

     Estimated total dynamical RAM >       4.33 GB

     Initial potential from superposition of free atoms

     starting charge  255.96421, renormalised to  256.00000
     Starting wfc are  256 randomized atomic wfcs
     Checking if some PAW data can be deallocated... 

     total cpu time spent up to now is       41.1 secs

     Self-consistent Calculation

     iteration #  1     ecut=    70.00 Ry     beta= 0.70
     Davidson diagonalization with overlap
     ethr =  1.00E-02,  avg # of iterations =  2.0

     Threshold (ethr) on eigenvalues was too large:
     Diagonalizing with lowered threshold

     Davidson diagonalization with overlap
     ethr =  6.98E-04,  avg # of iterations =  1.0

     total cpu time spent up to now is      155.8 secs

     total energy              =   -2990.46244631 Ry
     Harris-Foulkes estimate   =   -2990.88048756 Ry
     estimated scf accuracy    <       1.76668773 Ry

     iteration #  2     ecut=    70.00 Ry     beta= 0.70
     Davidson diagonalization with overlap
     ethr =  6.90E-04,  avg # of iterations =  1.0

     total cpu time spent up to now is      204.5 secs

     total energy              =   -2990.52627944 Ry
     Harris-Foulkes estimate   =   -2990.53059098 Ry
     estimated scf accuracy    <       0.07825106 Ry

     iteration #  3     ecut=    70.00 Ry     beta= 0.70
     Davidson diagonalization with overlap
     ethr =  3.06E-05,  avg # of iterations =  2.5

     total cpu time spent up to now is      261.8 secs

     total energy              =   -2990.53497104 Ry
     Harris-Foulkes estimate   =   -2990.53564292 Ry
     estimated scf accuracy    <       0.00179382 Ry

     iteration #  4     ecut=    70.00 Ry     beta= 0.70
     Davidson diagonalization with overlap
     ethr =  7.01E-07,  avg # of iterations =  3.8

     total cpu time spent up to now is      344.3 secs

     total energy              =   -2990.53554200 Ry
     Harris-Foulkes estimate   =   -2990.53624838 Ry
     estimated scf accuracy    <       0.00198485 Ry

     iteration #  5     ecut=    70.00 Ry     beta= 0.70
     Davidson diagonalization with overlap
     ethr =  7.01E-07,  avg # of iterations =  3.0

     total cpu time spent up to now is      405.5 secs

     total energy              =   -2990.53587940 Ry
     Harris-Foulkes estimate   =   -2990.53595288 Ry
     estimated scf accuracy    <       0.00021190 Ry

     iteration #  6     ecut=    70.00 Ry     beta= 0.70
     Davidson diagonalization with overlap
     ethr =  8.28E-08,  avg # of iterations =  3.0

     total cpu time spent up to now is      469.9 secs

     total energy              =   -2990.53591316 Ry
     Harris-Foulkes estimate   =   -2990.53593556 Ry
     estimated scf accuracy    <       0.00006266 Ry

     iteration #  7     ecut=    70.00 Ry     beta= 0.70
     Davidson diagonalization with overlap
     ethr =  2.45E-08,  avg # of iterations =  2.0

     total cpu time spent up to now is      530.1 secs

     total energy              =   -2990.53592392 Ry
     Harris-Foulkes estimate   =   -2990.53592455 Ry
     estimated scf accuracy    <       0.00000126 Ry

     iteration #  8     ecut=    70.00 Ry     beta= 0.70
     Davidson diagonalization with overlap
     ethr =  4.93E-10,  avg # of iterations =  3.0

     total cpu time spent up to now is      617.5 secs

     total energy              =   -2990.53592486 Ry
     Harris-Foulkes estimate   =   -2990.53592512 Ry
     estimated scf accuracy    <       0.00000044 Ry

     iteration #  9     ecut=    70.00 Ry     beta= 0.70
     Davidson diagonalization with overlap
     ethr =  1.73E-10,  avg # of iterations =  3.0

     total cpu time spent up to now is      678.7 secs

     total energy              =   -2990.53592481 Ry
     Harris-Foulkes estimate   =   -2990.53592496 Ry
     estimated scf accuracy    <       0.00000020 Ry

     iteration # 10     ecut=    70.00 Ry     beta= 0.70
     Davidson diagonalization with overlap
     ethr =  7.70E-11,  avg # of iterations =  2.0

     total cpu time spent up to now is      738.0 secs

     total energy              =   -2990.53592478 Ry
     Harris-Foulkes estimate   =   -2990.53592484 Ry
     estimated scf accuracy    <       0.00000003 Ry

     iteration # 11     ecut=    70.00 Ry     beta= 0.70
     Davidson diagonalization with overlap
     ethr =  1.07E-11,  avg # of iterations =  3.0

     total cpu time spent up to now is      802.6 secs

     total energy              =   -2990.53592478 Ry
     Harris-Foulkes estimate   =   -2990.53592478 Ry
     estimated scf accuracy    <          3.7E-09 Ry

     iteration # 12     ecut=    70.00 Ry     beta= 0.70
     Davidson diagonalization with overlap
     ethr =  1.43E-12,  avg # of iterations =  3.0

     total cpu time spent up to now is      875.7 secs

     total energy              =   -2990.53592478 Ry
     Harris-Foulkes estimate   =   -2990.53592479 Ry
     estimated scf accuracy    <          1.4E-09 Ry

     iteration # 13     ecut=    70.00 Ry     beta= 0.70
     Davidson diagonalization with overlap
     ethr =  5.55E-13,  avg # of iterations =  3.0

     total cpu time spent up to now is      940.5 secs

     End of self-consistent calculation

          k = 0.2500 0.2500 0.2500 ( 87251 PWs)   bands (ev):

    -5.6250  -5.0990  -5.0963  -5.0937  -4.5994  -4.5967  -4.5941  -4.1632
    -4.0659  -4.0634  -4.0608  -3.6563  -3.6493  -3.6475  -3.6454  -3.6448
    -3.6389  -3.4601  -3.4548  -3.4494  -2.9614  -2.9586  -2.9557  -2.5944
    -2.5892  -2.5843  -2.4298  -2.4231  -2.4216  -2.4190  -2.4180  -2.4131
    -0.8860  -0.8817  -0.8787  -0.8768  -0.8753  -0.8717  -0.7850  -0.7804
    -0.7757  -0.6657  -0.6622  -0.6586  -0.5813  -0.5762  -0.5707   0.1263
     0.2037   0.2066   0.2101   0.2115   0.2145   0.2182   1.0803   1.0854
     1.0904   1.4168   1.4183   1.4198   2.0251   2.0270   2.0281   2.0297
     2.0320   2.0324   2.0868   2.0884   2.0900   2.6377   2.6401   2.6424
     2.7376   2.7390   2.7428   2.7443   2.7458   2.7482   2.7944   2.7966
     2.7994   3.1031   3.1046   3.1066   3.1081   3.1101   3.1128   3.3697
     3.3718   3.3739   3.3847   3.3865   3.3874   3.7315   3.7347   3.7378
     3.7513   3.7565   3.7615   3.8373   3.8393   3.8416   4.1052   4.1114
     4.1141   4.1149   4.1168   4.1228   4.1516   4.1535   4.1565   4.4130
     4.4684   4.4710   4.4734   4.7122   4.7144   4.7168   4.7744   4.7787
     4.7836   4.9363   4.9363   5.2406   5.2435   5.2467   5.7239   5.7240

          k =-0.2500-0.2500 0.2500 ( 87251 PWs)   bands (ev):

    -5.6250  -5.1005  -5.0963  -5.0922  -4.6008  -4.5967  -4.5927  -4.1631
    -4.0676  -4.0633  -4.0591  -3.6567  -3.6500  -3.6471  -3.6452  -3.6442
    -3.6391  -3.4601  -3.4548  -3.4494  -2.9634  -2.9585  -2.9537  -2.5943
    -2.5892  -2.5843  -2.4300  -2.4235  -2.4212  -2.4192  -2.4179  -2.4129
    -0.8861  -0.8820  -0.8782  -0.8768  -0.8750  -0.8718  -0.7851  -0.7804
    -0.7757  -0.6657  -0.6622  -0.6586  -0.5833  -0.5762  -0.5688   0.1264
     0.2029   0.2063   0.2098   0.2127   0.2147   0.2181   1.0798   1.0854
     1.0908   1.4160   1.4183   1.4207   2.0253   2.0257   2.0288   2.0302
     2.0315   2.0333   2.0853   2.0880   2.0912   2.6378   2.6401   2.6424
     2.7371   2.7392   2.7432   2.7444   2.7468   2.7485   2.7932   2.7963
     2.7996   3.1021   3.1051   3.1063   3.1088   3.1110   3.1120   3.3699
     3.3718   3.3735   3.3840   3.3861   3.3885   3.7310   3.7348   3.7379
     3.7515   3.7565   3.7614   3.8367   3.8396   3.8423   4.1052   4.1111
     4.1143   4.1147   4.1172   4.1224   4.1505   4.1539   4.1570   4.4130
     4.4685   4.4709   4.4735   4.7113   4.7145   4.7178   4.7732   4.7786
     4.7849   4.9361   4.9363   5.2392   5.2436   5.2479   5.7239   5.7241

          k =-0.2500 0.2500-0.2500 ( 87251 PWs)   bands (ev):

    -5.6250  -5.0990  -5.0963  -5.0937  -4.5994  -4.5967  -4.5941  -4.1632
    -4.0659  -4.0634  -4.0608  -3.6563  -3.6493  -3.6475  -3.6454  -3.6448
    -3.6389  -3.4601  -3.4548  -3.4494  -2.9614  -2.9586  -2.9557  -2.5944
    -2.5892  -2.5843  -2.4298  -2.4231  -2.4216  -2.4190  -2.4180  -2.4131
    -0.8860  -0.8817  -0.8787  -0.8768  -0.8753  -0.8717  -0.7850  -0.7804
    -0.7757  -0.6657  -0.6622  -0.6586  -0.5813  -0.5762  -0.5707   0.1263
     0.2037   0.2066   0.2101   0.2115   0.2145   0.2182   1.0803   1.0854
     1.0904   1.4168   1.4183   1.4198   2.0251   2.0270   2.0281   2.0297
     2.0320   2.0324   2.0868   2.0884   2.0900   2.6377   2.6401   2.6424
     2.7376   2.7390   2.7428   2.7443   2.7458   2.7482   2.7944   2.7966
     2.7994   3.1031   3.1046   3.1066   3.1081   3.1101   3.1128   3.3697
     3.3718   3.3739   3.3847   3.3865   3.3874   3.7315   3.7347   3.7378
     3.7513   3.7565   3.7615   3.8373   3.8393   3.8416   4.1052   4.1114
     4.1141   4.1149   4.1168   4.1228   4.1516   4.1535   4.1565   4.4130
     4.4684   4.4710   4.4734   4.7122   4.7144   4.7168   4.7744   4.7787
     4.7836   4.9363   4.9363   5.2406   5.2435   5.2467   5.7239   5.7240

          k = 0.2500-0.2500-0.2500 ( 87251 PWs)   bands (ev):

    -5.6250  -5.1005  -5.0963  -5.0922  -4.6008  -4.5967  -4.5927  -4.1631
    -4.0676  -4.0633  -4.0591  -3.6567  -3.6500  -3.6471  -3.6452  -3.6442
    -3.6391  -3.4601  -3.4548  -3.4494  -2.9634  -2.9585  -2.9537  -2.5943
    -2.5892  -2.5843  -2.4300  -2.4235  -2.4212  -2.4192  -2.4179  -2.4129
    -0.8862  -0.8820  -0.8782  -0.8768  -0.8750  -0.8718  -0.7851  -0.7804
    -0.7757  -0.6657  -0.6622  -0.6586  -0.5833  -0.5762  -0.5688   0.1264
     0.2029   0.2063   0.2098   0.2127   0.2147   0.2181   1.0798   1.0854
     1.0908   1.4160   1.4183   1.4207   2.0253   2.0257   2.0288   2.0302
     2.0315   2.0333   2.0853   2.0880   2.0912   2.6378   2.6401   2.6424
     2.7371   2.7392   2.7432   2.7444   2.7468   2.7485   2.7932   2.7963
     2.7996   3.1021   3.1051   3.1063   3.1088   3.1110   3.1120   3.3699
     3.3718   3.3735   3.3840   3.3861   3.3885   3.7310   3.7348   3.7379
     3.7515   3.7565   3.7614   3.8367   3.8396   3.8423   4.1052   4.1111
     4.1143   4.1147   4.1172   4.1224   4.1505   4.1539   4.1570   4.4130
     4.4685   4.4709   4.4735   4.7113   4.7145   4.7178   4.7732   4.7786
     4.7849   4.9361   4.9363   5.2392   5.2436   5.2479   5.7239   5.7241

     highest occupied level (ev):     5.7241

!    total energy              =   -2990.53592479 Ry
     Harris-Foulkes estimate   =   -2990.53592479 Ry
     estimated scf accuracy    <          3.2E-10 Ry

     total all-electron energy =    -37124.671478 Ry

     The total energy is the sum of the following terms:

     one-electron contribution =     178.60400620 Ry
     hartree contribution      =      35.70180327 Ry
     xc contribution           =    -391.44049966 Ry
     ewald contribution        =    -534.00622453 Ry
     one-center paw contrib.   =   -2279.39501007 Ry

     convergence has been achieved in  13 iterations

     Forces acting on atoms (cartesian axes, Ry/au):

     atom    1 type  1   force =    -0.01590865   -0.00000890    0.00007627
     atom    2 type  1   force =    -0.00002018   -0.00000977   -0.00007686
     atom    3 type  1   force =    -0.00017712   -0.00011023   -0.00022687
     atom    4 type  1   force =    -0.00024442   -0.00011345    0.00023204
     atom    5 type  1   force =     0.00001194    0.00000977   -0.00007690
     atom    6 type  1   force =    -0.00004915    0.00000866    0.00007701
     atom    7 type  1   force =    -0.00070638    0.00010927    0.00022619
     atom    8 type  1   force =    -0.00021369    0.00011398   -0.00023247
     atom    9 type  1   force =    -0.00076037   -0.00011235    0.00000446
     atom   10 type  1   force =    -0.00023803    0.00024236   -0.00010456
     atom   11 type  1   force =    -0.00075549    0.00033647    0.00000101
     atom   12 type  1   force =    -0.00023736   -0.00022303    0.00010421
     atom   13 type  1   force =    -0.00056569   -0.00003268    0.00009964
     atom   14 type  1   force =    -0.00004216   -0.00008624    0.00000033
     atom   15 type  1   force =    -0.00057022   -0.00019052   -0.00010484
     atom   16 type  1   force =    -0.00004334    0.00006705    0.00000028
     atom   17 type  1   force =     0.00017663   -0.00011037    0.00022758
     atom   18 type  1   force =     0.00024500   -0.00011406   -0.00023213
     atom   19 type  1   force =     0.01590808   -0.00000889   -0.00007625
     atom   20 type  1   force =     0.00002109   -0.00000953    0.00007621
     atom   21 type  1   force =     0.00070613    0.00010932   -0.00022704
     atom   22 type  1   force =     0.00021348    0.00011355    0.00023273
     atom   23 type  1   force =    -0.00001185    0.00000989    0.00007715
     atom   24 type  1   force =     0.00004890    0.00000923   -0.00007646
     atom   25 type  1   force =     0.00075503    0.00033672   -0.00000114
     atom   26 type  1   force =     0.00023799   -0.00022288   -0.00010415
     atom   27 type  1   force =     0.00075962   -0.00011310   -0.00000449
     atom   28 type  1   force =     0.00023801    0.00024224    0.00010451
     atom   29 type  1   force =     0.00056999   -0.00019077    0.00010495
     atom   30 type  1   force =     0.00004398    0.00006680   -0.00000051
     atom   31 type  1   force =     0.00056592   -0.00003200   -0.00009953
     atom   32 type  1   force =     0.00004235   -0.00008592   -0.00000036
     atom   33 type  1   force =    -0.00395070    0.00273585   -0.00267291
     atom   34 type  1   force =     0.00026885    0.00006584   -0.00001037
     atom   35 type  1   force =     0.00008662    0.00006512   -0.00002483
     atom   36 type  1   force =    -0.00008676    0.00007484    0.00001222
     atom   37 type  1   force =     0.00008663    0.00007516   -0.00001235
     atom   38 type  1   force =    -0.00008679    0.00006527    0.00002573
     atom   39 type  1   force =    -0.00026828    0.00006576    0.00000973
     atom   40 type  1   force =     0.00395033    0.00273569    0.00267307
     atom   41 type  1   force =     0.00004804   -0.00007716    0.00001139
     atom   42 type  1   force =     0.00390278   -0.00272901   -0.00267781
     atom   43 type  1   force =    -0.00390273   -0.00272903    0.00267758
     atom   44 type  1   force =    -0.00004801   -0.00007749   -0.00001128
     atom   45 type  1   force =    -0.00023003   -0.00005461    0.00000372
     atom   46 type  1   force =    -0.00003861   -0.00008127   -0.00000802
     atom   47 type  1   force =     0.00003899   -0.00008096    0.00000789
     atom   48 type  1   force =     0.00022974   -0.00005400   -0.00000383
     atom   49 type  1   force =    -0.00387079   -0.00251915   -0.00242968
     atom   50 type  1   force =     0.00004137   -0.00006426   -0.00000891
     atom   51 type  1   force =     0.00386994   -0.00251959    0.00242979
     atom   52 type  1   force =    -0.00004063   -0.00006479    0.00000861
     atom   53 type  1   force =     0.00031117   -0.00007980   -0.00001009
     atom   54 type  1   force =    -0.00004953   -0.00005934    0.00000435
     atom   55 type  1   force =    -0.00031110   -0.00007936    0.00000994
     atom   56 type  1   force =     0.00004951   -0.00005957   -0.00000412
     atom   57 type  1   force =    -0.00000081    0.00008901    0.00001506
     atom   58 type  1   force =     0.00000109    0.00005544    0.00000242
     atom   59 type  1   force =    -0.00355893    0.00250930    0.00245414
     atom   60 type  1   force =    -0.00000856    0.00006892    0.00000723
     atom   61 type  1   force =     0.00355826    0.00250939   -0.00245461
     atom   62 type  1   force =     0.00000882    0.00006825   -0.00000736
     atom   63 type  1   force =     0.00000068    0.00008926   -0.00001448
     atom   64 type  1   force =    -0.00000060    0.00005568   -0.00000221

     Total force =     0.027160     Total SCF correction =     0.000033


     Computing stress (Cartesian axis) and pressure

          total   stress  (Ry/bohr**3)                   (kbar)     P=    0.12
   0.00000059   0.00000000   0.00000000          0.09      0.00      0.00
   0.00000000   0.00000089  -0.00000000          0.00      0.13     -0.00
   0.00000000  -0.00000000   0.00000090          0.00     -0.00      0.13


     init_run     :     40.15s CPU     40.96s WALL (       1 calls)
     electrons    :    878.73s CPU    899.45s WALL (       1 calls)
     forces       :     11.56s CPU     11.80s WALL (       1 calls)
     stress       :     56.42s CPU     56.71s WALL (       1 calls)

     Called by init_run:
     wfcinit      :     37.08s CPU     37.79s WALL (       1 calls)
     potinit      :      1.06s CPU      1.09s WALL (       1 calls)

     Called by electrons:
     c_bands      :    729.86s CPU    747.23s WALL (      14 calls)
     sum_band     :    132.22s CPU    134.65s WALL (      14 calls)
     v_of_rho     :      5.43s CPU      5.57s WALL (      14 calls)
     newd         :      2.91s CPU      3.73s WALL (      14 calls)
     PAW_pot      :      8.10s CPU      8.11s WALL (      14 calls)
     mix_rho      :      1.22s CPU      1.25s WALL (      14 calls)

     Called by c_bands:
     init_us_2    :      7.74s CPU      7.77s WALL (     124 calls)
     cegterg      :    715.08s CPU    732.40s WALL (      56 calls)

     Called by sum_band:
     sum_band:bec :      0.01s CPU      0.02s WALL (      56 calls)
     addusdens    :      3.58s CPU      4.35s WALL (      14 calls)

     Called by *egterg:
     h_psi        :    635.54s CPU    646.61s WALL (     201 calls)
     s_psi        :     36.71s CPU     36.73s WALL (     201 calls)
     g_psi        :      1.30s CPU      1.30s WALL (     141 calls)
     cdiaghg      :      4.64s CPU      4.63s WALL (     193 calls)

     Called by h_psi:
     h_psi:pot    :    631.48s CPU    642.50s WALL (     201 calls)
     h_psi:calbec :     36.50s CPU     36.51s WALL (     201 calls)
     vloc_psi     :    558.38s CPU    569.36s WALL (     201 calls)
     add_vuspsi   :     36.59s CPU     36.62s WALL (     201 calls)

     General routines
     calbec       :     53.66s CPU     53.68s WALL (     277 calls)
     fft          :      4.53s CPU      4.79s WALL (     209 calls)
     fftw         :    564.02s CPU    576.42s WALL (   48992 calls)

     Parallel routines
     fft_scatt_xy :     95.29s CPU     95.42s WALL (   49201 calls)
     fft_scatt_yz :    105.22s CPU    111.31s WALL (   49201 calls)

     PWSCF        : 16m26.96s CPU    16m49.04s WALL


   This run was terminated on:   2: 1:16  25Oct2021            

=------------------------------------------------------------------------------=
   JOB DONE.
=------------------------------------------------------------------------------=
Note: The following floating-point exceptions are signalling: IEEE_UNDERFLOW_FLAG IEEE_DENORMAL
