
     Program PWSCF v.6.2 (svn rev. 13949:13950) starts on 25Oct2021 at 12:19: 2 

     This program is part of the open-source Quantum ESPRESSO suite
     for quantum simulation of materials; please cite
         "P. Giannozzi et al., J. Phys.:Condens. Matter 21 395502 (2009);
         "P. Giannozzi et al., J. Phys.:Condens. Matter 29 465901 (2017);
          URL http://www.quantum-espresso.org", 
     in publications or presentations arising from this work. More details at
     http://www.quantum-espresso.org/quote

     Parallel version (MPI), running on     4 processors

     MPI processes distributed on     1 nodes
     R & G space division:  proc/nbgrp/npool/nimage =       4
     Reading input from headeradd_supercell-00086.in

     Current dimensions of program PWSCF are:
     Max number of different atomic species (ntypx) = 10
     Max number of k-points (npk) =  40000
     Max angular momentum in pseudopotentials (lmaxx) =  3
     Message from routine iosys:
     minimal I/O required, wf_collect reset to FALSE
               file Si.pbe-n-kjpaw_psl.0.1.UPF: wavefunction(s)  3S renormalized

     Subspace diagonalization in iterative solution of the eigenvalue problem:
     a serial algorithm will be used


     Parallelization info
     --------------------
     sticks:   dense  smooth     PW     G-vecs:    dense   smooth      PW
     Min        2372    2372    612               174341   174341   22844
     Max        2374    2374    613               174344   174344   22847
     Sum        9493    9493   2449               697371   697371   91383



     bravais-lattice index     =            0
     lattice parameter (alat)  =      20.6591  a.u.
     unit-cell volume          =    8817.2783 (a.u.)^3
     number of atoms/cell      =           64
     number of atomic types    =            1
     number of electrons       =       256.00
     number of Kohn-Sham states=          128
     kinetic-energy cutoff     =      70.0000  Ry
     charge density cutoff     =     280.0000  Ry
     convergence threshold     =      1.0E-09
     mixing beta               =       0.7000
     number of iterations used =            8  plain     mixing
     Exchange-correlation      =  SLA  PW   PBX  PBC ( 1  4  3  4 0 0)

     celldm(1)=  20.659106  celldm(2)=   0.000000  celldm(3)=   0.000000
     celldm(4)=   0.000000  celldm(5)=   0.000000  celldm(6)=   0.000000

     crystal axes: (cart. coord. in units of alat)
               a(1) = (   1.000000   0.000000   0.000000 )  
               a(2) = (   0.000000   1.000000   0.000000 )  
               a(3) = (   0.000000   0.000000   1.000000 )  

     reciprocal axes: (cart. coord. in units 2 pi/alat)
               b(1) = (  1.000000  0.000000  0.000000 )  
               b(2) = (  0.000000  1.000000  0.000000 )  
               b(3) = (  0.000000  0.000000  1.000000 )  


     PseudoPot. # 1 for Si read from file:
     /home/uezono/pseudo/Si.pbe-n-kjpaw_psl.0.1.UPF
     MD5 check sum: 0810ef13ebffcf5dbabd57b297315270
     Pseudo is Projector augmented-wave + core cor, Zval =  4.0
     Generated using "atomic" code by A. Dal Corso  v.5.0.2 svn rev. 9415
     Shape of augmentation charge: PSQ
     Using radial grid of 1141 points,  4 beta functions with: 
                l(1) =   0
                l(2) =   0
                l(3) =   1
                l(4) =   1
     Q(r) pseudized with 0 coefficients 


     atomic species   valence    mass     pseudopotential
        Si             4.00    28.08550     Si( 1.00)

     No symmetry found



   Cartesian axes

     site n.     atom                  positions (alat units)
         1           Si  tau(   1) = (   0.4404043   0.4375000   0.4375000  )
         2           Si  tau(   2) = (   0.9375000   0.4375000   0.4375000  )
         3           Si  tau(   3) = (   0.4375000   0.9375000   0.4375000  )
         4           Si  tau(   4) = (   0.9375000   0.9375000   0.4375000  )
         5           Si  tau(   5) = (   0.4375000   0.4375000   0.9375000  )
         6           Si  tau(   6) = (   0.9375000   0.4375000   0.9375000  )
         7           Si  tau(   7) = (   0.4375000   0.9375000   0.9375000  )
         8           Si  tau(   8) = (   0.9375000   0.9375000   0.9375000  )
         9           Si  tau(   9) = (   0.4375000   0.1875000   0.1875000  )
        10           Si  tau(  10) = (   0.9375000   0.1875000   0.1875000  )
        11           Si  tau(  11) = (   0.4375000   0.6875000   0.1875000  )
        12           Si  tau(  12) = (   0.9375000   0.6875000   0.1875000  )
        13           Si  tau(  13) = (   0.4375000   0.1875000   0.6875000  )
        14           Si  tau(  14) = (   0.9375000   0.1875000   0.6875000  )
        15           Si  tau(  15) = (   0.4375000   0.6875000   0.6875000  )
        16           Si  tau(  16) = (   0.9375000   0.6875000   0.6875000  )
        17           Si  tau(  17) = (   0.1875000   0.4375000   0.1875000  )
        18           Si  tau(  18) = (   0.6875000   0.4375000   0.1875000  )
        19           Si  tau(  19) = (   0.1875000   0.9375000   0.1875000  )
        20           Si  tau(  20) = (   0.6875000   0.9375000   0.1875000  )
        21           Si  tau(  21) = (   0.1875000   0.4375000   0.6875000  )
        22           Si  tau(  22) = (   0.6875000   0.4375000   0.6875000  )
        23           Si  tau(  23) = (   0.1875000   0.9375000   0.6875000  )
        24           Si  tau(  24) = (   0.6875000   0.9375000   0.6875000  )
        25           Si  tau(  25) = (   0.1875000   0.1875000   0.4375000  )
        26           Si  tau(  26) = (   0.6875000   0.1875000   0.4375000  )
        27           Si  tau(  27) = (   0.1875000   0.6875000   0.4375000  )
        28           Si  tau(  28) = (   0.6875000   0.6875000   0.4375000  )
        29           Si  tau(  29) = (   0.1875000   0.1875000   0.9375000  )
        30           Si  tau(  30) = (   0.6875000   0.1875000   0.9375000  )
        31           Si  tau(  31) = (   0.1875000   0.6875000   0.9375000  )
        32           Si  tau(  32) = (   0.6875000   0.6875000   0.9375000  )
        33           Si  tau(  33) = (   0.0625000   0.0625000   0.0625000  )
        34           Si  tau(  34) = (   0.5625000   0.0625000   0.0625000  )
        35           Si  tau(  35) = (   0.0625000   0.5625000   0.0625000  )
        36           Si  tau(  36) = (   0.5625000   0.5625000   0.0625000  )
        37           Si  tau(  37) = (   0.0625000   0.0625000   0.5625000  )
        38           Si  tau(  38) = (   0.5625000   0.0625000   0.5625000  )
        39           Si  tau(  39) = (   0.0625000   0.5625000   0.5625000  )
        40           Si  tau(  40) = (   0.5625000   0.5625000   0.5625000  )
        41           Si  tau(  41) = (   0.0625000   0.3125000   0.3125000  )
        42           Si  tau(  42) = (   0.5625000   0.3125000   0.3125000  )
        43           Si  tau(  43) = (   0.0625000   0.8125000   0.3125000  )
        44           Si  tau(  44) = (   0.5625000   0.8125000   0.3125000  )
        45           Si  tau(  45) = (   0.0625000   0.3125000   0.8125000  )
        46           Si  tau(  46) = (   0.5625000   0.3125000   0.8125000  )
        47           Si  tau(  47) = (   0.0625000   0.8125000   0.8125000  )
        48           Si  tau(  48) = (   0.5625000   0.8125000   0.8125000  )
        49           Si  tau(  49) = (   0.3125000   0.0654043   0.3125000  )
        50           Si  tau(  50) = (   0.8125000   0.0625000   0.3125000  )
        51           Si  tau(  51) = (   0.3125000   0.5625000   0.3125000  )
        52           Si  tau(  52) = (   0.8125000   0.5625000   0.3125000  )
        53           Si  tau(  53) = (   0.3125000   0.0625000   0.8125000  )
        54           Si  tau(  54) = (   0.8125000   0.0625000   0.8125000  )
        55           Si  tau(  55) = (   0.3125000   0.5625000   0.8125000  )
        56           Si  tau(  56) = (   0.8125000   0.5625000   0.8125000  )
        57           Si  tau(  57) = (   0.3125000   0.3125000   0.0625000  )
        58           Si  tau(  58) = (   0.8125000   0.3125000   0.0625000  )
        59           Si  tau(  59) = (   0.3125000   0.8125000   0.0625000  )
        60           Si  tau(  60) = (   0.8125000   0.8125000   0.0625000  )
        61           Si  tau(  61) = (   0.3125000   0.3125000   0.5625000  )
        62           Si  tau(  62) = (   0.8125000   0.3125000   0.5625000  )
        63           Si  tau(  63) = (   0.3125000   0.8125000   0.5625000  )
        64           Si  tau(  64) = (   0.8125000   0.8125000   0.5625000  )

     number of k points=     4
                       cart. coord. in units 2pi/alat
        k(    1) = (   0.2500000   0.2500000   0.2500000), wk =   0.5000000
        k(    2) = (  -0.2500000  -0.2500000   0.2500000), wk =   0.5000000
        k(    3) = (  -0.2500000   0.2500000  -0.2500000), wk =   0.5000000
        k(    4) = (   0.2500000  -0.2500000  -0.2500000), wk =   0.5000000

     Dense  grid:   697371 G-vectors     FFT dimensions: ( 120, 120, 120)

     Estimated max dynamical RAM per process >       1.08 GB

     Estimated total dynamical RAM >       4.33 GB

     Initial potential from superposition of free atoms

     starting charge  255.96421, renormalised to  256.00000
     Starting wfc are  256 randomized atomic wfcs
     Checking if some PAW data can be deallocated... 

     total cpu time spent up to now is       41.1 secs

     Self-consistent Calculation

     iteration #  1     ecut=    70.00 Ry     beta= 0.70
     Davidson diagonalization with overlap
     ethr =  1.00E-02,  avg # of iterations =  2.0

     Threshold (ethr) on eigenvalues was too large:
     Diagonalizing with lowered threshold

     Davidson diagonalization with overlap
     ethr =  6.98E-04,  avg # of iterations =  1.0

     total cpu time spent up to now is      155.9 secs

     total energy              =   -2990.46245296 Ry
     Harris-Foulkes estimate   =   -2990.88048734 Ry
     estimated scf accuracy    <       1.76668108 Ry

     iteration #  2     ecut=    70.00 Ry     beta= 0.70
     Davidson diagonalization with overlap
     ethr =  6.90E-04,  avg # of iterations =  1.0

     total cpu time spent up to now is      204.7 secs

     total energy              =   -2990.52628184 Ry
     Harris-Foulkes estimate   =   -2990.53058858 Ry
     estimated scf accuracy    <       0.07824624 Ry

     iteration #  3     ecut=    70.00 Ry     beta= 0.70
     Davidson diagonalization with overlap
     ethr =  3.06E-05,  avg # of iterations =  2.8

     total cpu time spent up to now is      262.3 secs

     total energy              =   -2990.53498280 Ry
     Harris-Foulkes estimate   =   -2990.53564297 Ry
     estimated scf accuracy    <       0.00178095 Ry

     iteration #  4     ecut=    70.00 Ry     beta= 0.70
     Davidson diagonalization with overlap
     ethr =  6.96E-07,  avg # of iterations =  3.5

     total cpu time spent up to now is      344.3 secs

     total energy              =   -2990.53556783 Ry
     Harris-Foulkes estimate   =   -2990.53622342 Ry
     estimated scf accuracy    <       0.00186257 Ry

     iteration #  5     ecut=    70.00 Ry     beta= 0.70
     Davidson diagonalization with overlap
     ethr =  6.96E-07,  avg # of iterations =  2.5

     total cpu time spent up to now is      404.6 secs

     total energy              =   -2990.53588335 Ry
     Harris-Foulkes estimate   =   -2990.53595085 Ry
     estimated scf accuracy    <       0.00019554 Ry

     iteration #  6     ecut=    70.00 Ry     beta= 0.70
     Davidson diagonalization with overlap
     ethr =  7.64E-08,  avg # of iterations =  3.0

     total cpu time spent up to now is      469.3 secs

     total energy              =   -2990.53591407 Ry
     Harris-Foulkes estimate   =   -2990.53593518 Ry
     estimated scf accuracy    <       0.00005852 Ry

     iteration #  7     ecut=    70.00 Ry     beta= 0.70
     Davidson diagonalization with overlap
     ethr =  2.29E-08,  avg # of iterations =  2.0

     total cpu time spent up to now is      529.6 secs

     total energy              =   -2990.53592428 Ry
     Harris-Foulkes estimate   =   -2990.53592487 Ry
     estimated scf accuracy    <       0.00000116 Ry

     iteration #  8     ecut=    70.00 Ry     beta= 0.70
     Davidson diagonalization with overlap
     ethr =  4.54E-10,  avg # of iterations =  3.2

     total cpu time spent up to now is      617.4 secs

     total energy              =   -2990.53592516 Ry
     Harris-Foulkes estimate   =   -2990.53592545 Ry
     estimated scf accuracy    <       0.00000060 Ry

     iteration #  9     ecut=    70.00 Ry     beta= 0.70
     Davidson diagonalization with overlap
     ethr =  2.33E-10,  avg # of iterations =  2.8

     total cpu time spent up to now is      677.5 secs

     total energy              =   -2990.53592511 Ry
     Harris-Foulkes estimate   =   -2990.53592527 Ry
     estimated scf accuracy    <       0.00000017 Ry

     iteration # 10     ecut=    70.00 Ry     beta= 0.70
     Davidson diagonalization with overlap
     ethr =  6.73E-11,  avg # of iterations =  2.0

     total cpu time spent up to now is      737.5 secs

     total energy              =   -2990.53592507 Ry
     Harris-Foulkes estimate   =   -2990.53592514 Ry
     estimated scf accuracy    <       0.00000002 Ry

     iteration # 11     ecut=    70.00 Ry     beta= 0.70
     Davidson diagonalization with overlap
     ethr =  8.87E-12,  avg # of iterations =  3.0

     total cpu time spent up to now is      803.9 secs

     total energy              =   -2990.53592508 Ry
     Harris-Foulkes estimate   =   -2990.53592508 Ry
     estimated scf accuracy    <          3.9E-09 Ry

     iteration # 12     ecut=    70.00 Ry     beta= 0.70
     Davidson diagonalization with overlap
     ethr =  1.52E-12,  avg # of iterations =  3.0

     total cpu time spent up to now is      877.5 secs

     total energy              =   -2990.53592508 Ry
     Harris-Foulkes estimate   =   -2990.53592508 Ry
     estimated scf accuracy    <          1.9E-09 Ry

     iteration # 13     ecut=    70.00 Ry     beta= 0.70
     Davidson diagonalization with overlap
     ethr =  7.44E-13,  avg # of iterations =  3.0

     total cpu time spent up to now is      940.5 secs

     End of self-consistent calculation

          k = 0.2500 0.2500 0.2500 ( 87251 PWs)   bands (ev):

    -5.6250  -5.1005  -5.0958  -5.0927  -4.6008  -4.5963  -4.5931  -4.1633
    -4.0674  -4.0627  -4.0599  -3.6578  -3.6480  -3.6470  -3.6463  -3.6440
    -3.6393  -3.4591  -3.4549  -3.4502  -2.9630  -2.9582  -2.9545  -2.5945
    -2.5891  -2.5843  -2.4301  -2.4218  -2.4210  -2.4203  -2.4182  -2.4131
    -0.8876  -0.8813  -0.8788  -0.8776  -0.8757  -0.8691  -0.7857  -0.7806
    -0.7746  -0.6678  -0.6622  -0.6567  -0.5807  -0.5773  -0.5702   0.1263
     0.2012   0.2054   0.2099   0.2113   0.2145   0.2222   1.0812   1.0850
     1.0899   1.4142   1.4183   1.4224   2.0242   2.0272   2.0280   2.0293
     2.0321   2.0337   2.0856   2.0879   2.0914   2.6371   2.6402   2.6430
     2.7360   2.7393   2.7429   2.7449   2.7469   2.7484   2.7925   2.7975
     2.7999   3.0997   3.1058   3.1071   3.1085   3.1096   3.1146   3.3695
     3.3714   3.3743   3.3820   3.3864   3.3902   3.7307   3.7345   3.7385
     3.7522   3.7561   3.7611   3.8360   3.8392   3.8433   4.1066   4.1104
     4.1141   4.1146   4.1173   4.1225   4.1499   4.1532   4.1579   4.4131
     4.4676   4.4706   4.4746   4.7104   4.7141   4.7187   4.7752   4.7783
     4.7835   4.9319   4.9405   5.2384   5.2430   5.2493   5.7191   5.7289

          k =-0.2500-0.2500 0.2500 ( 87251 PWs)   bands (ev):

    -5.6250  -5.0990  -5.0970  -5.0930  -4.5993  -4.5973  -4.5936  -4.1631
    -4.0662  -4.0641  -4.0598  -3.6557  -3.6504  -3.6479  -3.6455  -3.6447
    -3.6381  -3.4593  -3.4548  -3.4502  -2.9622  -2.9589  -2.9546  -2.5944
    -2.5892  -2.5843  -2.4292  -2.4237  -2.4220  -2.4197  -2.4181  -2.4119
    -0.8873  -0.8813  -0.8798  -0.8754  -0.8748  -0.8715  -0.7858  -0.7804
    -0.7748  -0.6678  -0.6623  -0.6566  -0.5836  -0.5756  -0.5689   0.1263
     0.2010   0.2073   0.2090   0.2142   0.2158   0.2172   1.0790   1.0855
     1.0915   1.4139   1.4184   1.4227   2.0235   2.0266   2.0291   2.0299
     2.0307   2.0347   2.0855   2.0884   2.0911   2.6370   2.6402   2.6430
     2.7372   2.7388   2.7418   2.7453   2.7463   2.7490   2.7928   2.7960
     2.8009   3.1022   3.1052   3.1070   3.1079   3.1099   3.1132   3.3693
     3.3713   3.3738   3.3823   3.3866   3.3905   3.7312   3.7350   3.7372
     3.7521   3.7561   3.7616   3.8365   3.8400   3.8420   4.1057   4.1121
     4.1132   4.1153   4.1171   4.1217   4.1504   4.1544   4.1565   4.4132
     4.4676   4.4706   4.4746   4.7111   4.7147   4.7175   4.7728   4.7788
     4.7853   4.9318   4.9406   5.2391   5.2441   5.2475   5.7191   5.7289

          k =-0.2500 0.2500-0.2500 ( 87251 PWs)   bands (ev):

    -5.6251  -5.0988  -5.0963  -5.0936  -4.5993  -4.5969  -4.5941  -4.1642
    -4.0661  -4.0638  -4.0613  -3.6522  -3.6505  -3.6491  -3.6468  -3.6431
    -3.6378  -3.4576  -3.4553  -3.4492  -2.9631  -2.9607  -2.9575  -2.5925
    -2.5909  -2.5834  -2.4258  -2.4243  -2.4230  -2.4207  -2.4160  -2.4129
    -0.8851  -0.8826  -0.8811  -0.8780  -0.8750  -0.8710  -0.7855  -0.7830
    -0.7753  -0.6686  -0.6627  -0.6604  -0.5775  -0.5713  -0.5666   0.1300
     0.2021   0.2048   0.2070   0.2107   0.2124   0.2185   1.0829   1.0874
     1.0931   1.4152   1.4195   1.4200   2.0244   2.0270   2.0285   2.0301
     2.0314   2.0322   2.0848   2.0880   2.0891   2.6399   2.6408   2.6455
     2.7361   2.7379   2.7411   2.7432   2.7453   2.7465   2.7913   2.7954
     2.7967   3.1038   3.1045   3.1065   3.1073   3.1110   3.1134   3.3685
     3.3712   3.3718   3.3820   3.3861   3.3867   3.7338   3.7362   3.7391
     3.7562   3.7572   3.7661   3.8363   3.8375   3.8412   4.1122   4.1133
     4.1138   4.1164   4.1213   4.1247   4.1499   4.1517   4.1559   4.4169
     4.4658   4.4698   4.4704   4.7104   4.7116   4.7154   4.7790   4.7836
     4.7886   4.9324   4.9376   5.2379   5.2398   5.2448   5.7188   5.7244

          k = 0.2500-0.2500-0.2500 ( 87251 PWs)   bands (ev):

    -5.6250  -5.0991  -5.0964  -5.0938  -4.5994  -4.5965  -4.5941  -4.1621
    -4.0656  -4.0630  -4.0604  -3.6568  -3.6514  -3.6460  -3.6454  -3.6437
    -3.6420  -3.4601  -3.4543  -3.4520  -2.9596  -2.9564  -2.9540  -2.5955
    -2.5876  -2.5858  -2.4289  -2.4259  -2.4195  -2.4194  -2.4168  -2.4160
    -0.8859  -0.8827  -0.8764  -0.8754  -0.8738  -0.8729  -0.7856  -0.7777
    -0.7752  -0.6639  -0.6615  -0.6558  -0.5855  -0.5807  -0.5749   0.1226
     0.2032   0.2081   0.2125   0.2156   0.2164   0.2178   1.0777   1.0834
     1.0878   1.4166   1.4171   1.4214   2.0250   2.0267   2.0293   2.0301
     2.0309   2.0330   2.0881   2.0890   2.0916   2.6352   2.6388   2.6403
     2.7392   2.7413   2.7431   2.7455   2.7470   2.7499   2.7967   2.7979
     2.8021   3.1018   3.1048   3.1076   3.1092   3.1096   3.1115   3.3709
     3.3722   3.3751   3.3858   3.3863   3.3909   3.7294   3.7327   3.7358
     3.7494   3.7540   3.7565   3.8381   3.8414   3.8426   4.1042   4.1064
     4.1120   4.1141   4.1154   4.1166   4.1523   4.1558   4.1572   4.4091
     4.4708   4.4719   4.4770   4.7134   4.7171   4.7187   4.7696   4.7744
     4.7783   4.9350   4.9400   5.2424   5.2474   5.2492   5.7235   5.7292

     highest occupied level (ev):     5.7292

!    total energy              =   -2990.53592508 Ry
     Harris-Foulkes estimate   =   -2990.53592508 Ry
     estimated scf accuracy    <          6.7E-10 Ry

     total all-electron energy =    -37124.671478 Ry

     The total energy is the sum of the following terms:

     one-electron contribution =     178.60426608 Ry
     hartree contribution      =      35.70167467 Ry
     xc contribution           =    -391.44049856 Ry
     ewald contribution        =    -534.00635771 Ry
     one-center paw contrib.   =   -2279.39500956 Ry

     convergence has been achieved in  13 iterations

     Forces acting on atoms (cartesian axes, Ry/au):

     atom    1 type  1   force =    -0.01590219   -0.00001282   -0.00004037
     atom    2 type  1   force =    -0.00000499    0.00002815   -0.00002920
     atom    3 type  1   force =    -0.00242726    0.00381049   -0.00248216
     atom    4 type  1   force =    -0.00004478   -0.00005917   -0.00005223
     atom    5 type  1   force =     0.00002633    0.00002832   -0.00002569
     atom    6 type  1   force =    -0.00003870   -0.00002163   -0.00003038
     atom    7 type  1   force =    -0.00052588   -0.00005964   -0.00003702
     atom    8 type  1   force =    -0.00000413    0.00025199   -0.00002730
     atom    9 type  1   force =     0.00217573    0.00404328   -0.00258882
     atom   10 type  1   force =     0.00003768   -0.00005102   -0.00004024
     atom   11 type  1   force =    -0.00048489    0.00009567   -0.00014764
     atom   12 type  1   force =     0.00002421    0.00003519   -0.00003594
     atom   13 type  1   force =    -0.00047306   -0.00016991    0.00007014
     atom   14 type  1   force =     0.00002733    0.00024628   -0.00001846
     atom   15 type  1   force =    -0.00050097   -0.00008828   -0.00013886
     atom   16 type  1   force =     0.00003002   -0.00003174   -0.00004095
     atom   17 type  1   force =     0.00026969   -0.00012254    0.00026544
     atom   18 type  1   force =     0.00026410   -0.00008531   -0.00020361
     atom   19 type  1   force =     0.00252431    0.00380111    0.00240560
     atom   20 type  1   force =     0.00007994   -0.00006907    0.00012841
     atom   21 type  1   force =     0.00026011    0.00013782   -0.00020099
     atom   22 type  1   force =     0.00026862    0.00009229    0.00026367
     atom   23 type  1   force =     0.00009409   -0.00004984    0.00011374
     atom   24 type  1   force =     0.00006971    0.00026166   -0.00004887
     atom   25 type  1   force =    -0.00247284    0.00415608    0.00259384
     atom   26 type  1   force =     0.00019894   -0.00029288   -0.00006425
     atom   27 type  1   force =     0.00019284   -0.00024058    0.00014748
     atom   28 type  1   force =     0.00021276    0.00025803    0.00013990
     atom   29 type  1   force =    -0.00000806   -0.00013703    0.00002992
     atom   30 type  1   force =     0.00001461    0.00033301    0.00001847
     atom   31 type  1   force =     0.00001576    0.00010240    0.00003472
     atom   32 type  1   force =     0.00001097   -0.00009906    0.00004121
     atom   33 type  1   force =    -0.00013166   -0.00049231   -0.00007740
     atom   34 type  1   force =     0.00014207   -0.00050059    0.00014202
     atom   35 type  1   force =     0.00001588    0.00002661    0.00001544
     atom   36 type  1   force =    -0.00006983    0.00004901    0.00004873
     atom   37 type  1   force =     0.00013946   -0.00050377   -0.00008819
     atom   38 type  1   force =     0.00004893   -0.00048472    0.00015936
     atom   39 type  1   force =    -0.00000399    0.00003739    0.00002843
     atom   40 type  1   force =     0.00393805    0.00270432    0.00271362
     atom   41 type  1   force =    -0.00024580    0.00019993    0.00007543
     atom   42 type  1   force =     0.00416146   -0.00246471   -0.00281779
     atom   43 type  1   force =     0.00025284    0.00020629    0.00008304
     atom   44 type  1   force =    -0.00028763    0.00019147   -0.00016025
     atom   45 type  1   force =     0.00010159    0.00001658   -0.00001495
     atom   46 type  1   force =    -0.00013621   -0.00000692   -0.00004812
     atom   47 type  1   force =    -0.00009900    0.00001044   -0.00002174
     atom   48 type  1   force =     0.00033255    0.00001359   -0.00003760
     atom   49 type  1   force =    -0.00005960   -0.01590323    0.00005163
     atom   50 type  1   force =     0.00002767    0.00002767    0.00002900
     atom   51 type  1   force =     0.00381152   -0.00246026    0.00248182
     atom   52 type  1   force =    -0.00001359   -0.00004500    0.00003734
     atom   53 type  1   force =     0.00025281    0.00002672    0.00002719
     atom   54 type  1   force =    -0.00002217   -0.00050529    0.00003056
     atom   55 type  1   force =    -0.00005853   -0.00005852    0.00003763
     atom   56 type  1   force =     0.00002724   -0.00000550    0.00002692
     atom   57 type  1   force =     0.00005534    0.00029007   -0.00026927
     atom   58 type  1   force =     0.00003695    0.00007242    0.00004986
     atom   59 type  1   force =     0.00036284    0.00025780    0.00020019
     atom   60 type  1   force =    -0.00001275    0.00007219   -0.00010691
     atom   61 type  1   force =     0.00369700    0.00272004   -0.00224952
     atom   62 type  1   force =    -0.00002287    0.00008066   -0.00011445
     atom   63 type  1   force =    -0.00016844    0.00026827   -0.00027907
     atom   64 type  1   force =     0.00001786    0.00006811    0.00004745

     Total force =     0.027135     Total SCF correction =     0.000052


     Computing stress (Cartesian axis) and pressure

          total   stress  (Ry/bohr**3)                   (kbar)     P=    0.12
   0.00000074   0.00000000  -0.00000238          0.11      0.00     -0.35
   0.00000000   0.00000074   0.00000238          0.00      0.11      0.35
  -0.00000238   0.00000238   0.00000089         -0.35      0.35      0.13


     init_run     :     40.20s CPU     41.05s WALL (       1 calls)
     electrons    :    878.97s CPU    899.37s WALL (       1 calls)
     forces       :     11.58s CPU     11.80s WALL (       1 calls)
     stress       :     56.50s CPU     56.77s WALL (       1 calls)

     Called by init_run:
     wfcinit      :     37.07s CPU     37.83s WALL (       1 calls)
     potinit      :      1.06s CPU      1.09s WALL (       1 calls)

     Called by electrons:
     c_bands      :    730.01s CPU    747.01s WALL (      14 calls)
     sum_band     :    132.20s CPU    134.77s WALL (      14 calls)
     v_of_rho     :      5.43s CPU      5.57s WALL (      14 calls)
     newd         :      3.00s CPU      3.73s WALL (      14 calls)
     PAW_pot      :      8.13s CPU      8.14s WALL (      14 calls)
     mix_rho      :      1.23s CPU      1.26s WALL (      14 calls)

     Called by c_bands:
     init_us_2    :      7.84s CPU      7.87s WALL (     124 calls)
     cegterg      :    715.21s CPU    732.15s WALL (      56 calls)

     Called by sum_band:
     sum_band:bec :      0.01s CPU      0.02s WALL (      56 calls)
     addusdens    :      3.51s CPU      4.34s WALL (      14 calls)

     Called by *egterg:
     h_psi        :    635.88s CPU    646.58s WALL (     199 calls)
     s_psi        :     36.64s CPU     36.63s WALL (     199 calls)
     g_psi        :      1.30s CPU      1.29s WALL (     139 calls)
     cdiaghg      :      4.55s CPU      4.56s WALL (     191 calls)

     Called by h_psi:
     h_psi:pot    :    631.85s CPU    642.48s WALL (     199 calls)
     h_psi:calbec :     36.49s CPU     36.55s WALL (     199 calls)
     vloc_psi     :    558.87s CPU    569.45s WALL (     199 calls)
     add_vuspsi   :     36.49s CPU     36.48s WALL (     199 calls)

     General routines
     calbec       :     53.61s CPU     53.65s WALL (     275 calls)
     fft          :      4.56s CPU      4.80s WALL (     209 calls)
     fftw         :    564.46s CPU    576.88s WALL (   48982 calls)

     Parallel routines
     fft_scatt_xy :     95.48s CPU     95.81s WALL (   49191 calls)
     fft_scatt_yz :    104.81s CPU    111.28s WALL (   49191 calls)

     PWSCF        : 16m27.34s CPU    16m49.11s WALL


   This run was terminated on:  12:35:51  25Oct2021            

=------------------------------------------------------------------------------=
   JOB DONE.
=------------------------------------------------------------------------------=
Note: The following floating-point exceptions are signalling: IEEE_UNDERFLOW_FLAG IEEE_DENORMAL
