
     Program PWSCF v.6.2 (svn rev. 13949:13950) starts on 24Oct2021 at 15:53:48 

     This program is part of the open-source Quantum ESPRESSO suite
     for quantum simulation of materials; please cite
         "P. Giannozzi et al., J. Phys.:Condens. Matter 21 395502 (2009);
         "P. Giannozzi et al., J. Phys.:Condens. Matter 29 465901 (2017);
          URL http://www.quantum-espresso.org", 
     in publications or presentations arising from this work. More details at
     http://www.quantum-espresso.org/quote

     Parallel version (MPI), running on     4 processors

     MPI processes distributed on     1 nodes
     R & G space division:  proc/nbgrp/npool/nimage =       4
     Reading input from headeradd_supercell-00008.in

     Current dimensions of program PWSCF are:
     Max number of different atomic species (ntypx) = 10
     Max number of k-points (npk) =  40000
     Max angular momentum in pseudopotentials (lmaxx) =  3
     Message from routine iosys:
     minimal I/O required, wf_collect reset to FALSE
               file Si.pbe-n-kjpaw_psl.0.1.UPF: wavefunction(s)  3S renormalized

     Subspace diagonalization in iterative solution of the eigenvalue problem:
     a serial algorithm will be used


     Parallelization info
     --------------------
     sticks:   dense  smooth     PW     G-vecs:    dense   smooth      PW
     Min        2372    2372    612               174341   174341   22844
     Max        2374    2374    613               174344   174344   22847
     Sum        9493    9493   2449               697371   697371   91383



     bravais-lattice index     =            0
     lattice parameter (alat)  =      20.6591  a.u.
     unit-cell volume          =    8817.2783 (a.u.)^3
     number of atoms/cell      =           64
     number of atomic types    =            1
     number of electrons       =       256.00
     number of Kohn-Sham states=          128
     kinetic-energy cutoff     =      70.0000  Ry
     charge density cutoff     =     280.0000  Ry
     convergence threshold     =      1.0E-09
     mixing beta               =       0.7000
     number of iterations used =            8  plain     mixing
     Exchange-correlation      =  SLA  PW   PBX  PBC ( 1  4  3  4 0 0)

     celldm(1)=  20.659106  celldm(2)=   0.000000  celldm(3)=   0.000000
     celldm(4)=   0.000000  celldm(5)=   0.000000  celldm(6)=   0.000000

     crystal axes: (cart. coord. in units of alat)
               a(1) = (   1.000000   0.000000   0.000000 )  
               a(2) = (   0.000000   1.000000   0.000000 )  
               a(3) = (   0.000000   0.000000   1.000000 )  

     reciprocal axes: (cart. coord. in units 2 pi/alat)
               b(1) = (  1.000000  0.000000  0.000000 )  
               b(2) = (  0.000000  1.000000  0.000000 )  
               b(3) = (  0.000000  0.000000  1.000000 )  


     PseudoPot. # 1 for Si read from file:
     /home/uezono/pseudo/Si.pbe-n-kjpaw_psl.0.1.UPF
     MD5 check sum: 0810ef13ebffcf5dbabd57b297315270
     Pseudo is Projector augmented-wave + core cor, Zval =  4.0
     Generated using "atomic" code by A. Dal Corso  v.5.0.2 svn rev. 9415
     Shape of augmentation charge: PSQ
     Using radial grid of 1141 points,  4 beta functions with: 
                l(1) =   0
                l(2) =   0
                l(3) =   1
                l(4) =   1
     Q(r) pseudized with 0 coefficients 


     atomic species   valence    mass     pseudopotential
        Si             4.00    28.08550     Si( 1.00)

      2 Sym. Ops. (no inversion) found ( 1 have fractional translation)



   Cartesian axes

     site n.     atom                  positions (alat units)
         1           Si  tau(   1) = (   0.4404043   0.4375000   0.4375000  )
         2           Si  tau(   2) = (   0.9375000   0.4375000   0.4375000  )
         3           Si  tau(   3) = (   0.4375000   0.9375000   0.4404043  )
         4           Si  tau(   4) = (   0.9375000   0.9375000   0.4375000  )
         5           Si  tau(   5) = (   0.4375000   0.4375000   0.9375000  )
         6           Si  tau(   6) = (   0.9375000   0.4375000   0.9375000  )
         7           Si  tau(   7) = (   0.4375000   0.9375000   0.9375000  )
         8           Si  tau(   8) = (   0.9375000   0.9375000   0.9375000  )
         9           Si  tau(   9) = (   0.4375000   0.1875000   0.1875000  )
        10           Si  tau(  10) = (   0.9375000   0.1875000   0.1875000  )
        11           Si  tau(  11) = (   0.4375000   0.6875000   0.1875000  )
        12           Si  tau(  12) = (   0.9375000   0.6875000   0.1875000  )
        13           Si  tau(  13) = (   0.4375000   0.1875000   0.6875000  )
        14           Si  tau(  14) = (   0.9375000   0.1875000   0.6875000  )
        15           Si  tau(  15) = (   0.4375000   0.6875000   0.6875000  )
        16           Si  tau(  16) = (   0.9375000   0.6875000   0.6875000  )
        17           Si  tau(  17) = (   0.1875000   0.4375000   0.1875000  )
        18           Si  tau(  18) = (   0.6875000   0.4375000   0.1875000  )
        19           Si  tau(  19) = (   0.1875000   0.9375000   0.1875000  )
        20           Si  tau(  20) = (   0.6875000   0.9375000   0.1875000  )
        21           Si  tau(  21) = (   0.1875000   0.4375000   0.6875000  )
        22           Si  tau(  22) = (   0.6875000   0.4375000   0.6875000  )
        23           Si  tau(  23) = (   0.1875000   0.9375000   0.6875000  )
        24           Si  tau(  24) = (   0.6875000   0.9375000   0.6875000  )
        25           Si  tau(  25) = (   0.1875000   0.1875000   0.4375000  )
        26           Si  tau(  26) = (   0.6875000   0.1875000   0.4375000  )
        27           Si  tau(  27) = (   0.1875000   0.6875000   0.4375000  )
        28           Si  tau(  28) = (   0.6875000   0.6875000   0.4375000  )
        29           Si  tau(  29) = (   0.1875000   0.1875000   0.9375000  )
        30           Si  tau(  30) = (   0.6875000   0.1875000   0.9375000  )
        31           Si  tau(  31) = (   0.1875000   0.6875000   0.9375000  )
        32           Si  tau(  32) = (   0.6875000   0.6875000   0.9375000  )
        33           Si  tau(  33) = (   0.0625000   0.0625000   0.0625000  )
        34           Si  tau(  34) = (   0.5625000   0.0625000   0.0625000  )
        35           Si  tau(  35) = (   0.0625000   0.5625000   0.0625000  )
        36           Si  tau(  36) = (   0.5625000   0.5625000   0.0625000  )
        37           Si  tau(  37) = (   0.0625000   0.0625000   0.5625000  )
        38           Si  tau(  38) = (   0.5625000   0.0625000   0.5625000  )
        39           Si  tau(  39) = (   0.0625000   0.5625000   0.5625000  )
        40           Si  tau(  40) = (   0.5625000   0.5625000   0.5625000  )
        41           Si  tau(  41) = (   0.0625000   0.3125000   0.3125000  )
        42           Si  tau(  42) = (   0.5625000   0.3125000   0.3125000  )
        43           Si  tau(  43) = (   0.0625000   0.8125000   0.3125000  )
        44           Si  tau(  44) = (   0.5625000   0.8125000   0.3125000  )
        45           Si  tau(  45) = (   0.0625000   0.3125000   0.8125000  )
        46           Si  tau(  46) = (   0.5625000   0.3125000   0.8125000  )
        47           Si  tau(  47) = (   0.0625000   0.8125000   0.8125000  )
        48           Si  tau(  48) = (   0.5625000   0.8125000   0.8125000  )
        49           Si  tau(  49) = (   0.3125000   0.0625000   0.3125000  )
        50           Si  tau(  50) = (   0.8125000   0.0625000   0.3125000  )
        51           Si  tau(  51) = (   0.3125000   0.5625000   0.3125000  )
        52           Si  tau(  52) = (   0.8125000   0.5625000   0.3125000  )
        53           Si  tau(  53) = (   0.3125000   0.0625000   0.8125000  )
        54           Si  tau(  54) = (   0.8125000   0.0625000   0.8125000  )
        55           Si  tau(  55) = (   0.3125000   0.5625000   0.8125000  )
        56           Si  tau(  56) = (   0.8125000   0.5625000   0.8125000  )
        57           Si  tau(  57) = (   0.3125000   0.3125000   0.0625000  )
        58           Si  tau(  58) = (   0.8125000   0.3125000   0.0625000  )
        59           Si  tau(  59) = (   0.3125000   0.8125000   0.0625000  )
        60           Si  tau(  60) = (   0.8125000   0.8125000   0.0625000  )
        61           Si  tau(  61) = (   0.3125000   0.3125000   0.5625000  )
        62           Si  tau(  62) = (   0.8125000   0.3125000   0.5625000  )
        63           Si  tau(  63) = (   0.3125000   0.8125000   0.5625000  )
        64           Si  tau(  64) = (   0.8125000   0.8125000   0.5625000  )

     number of k points=     3
                       cart. coord. in units 2pi/alat
        k(    1) = (   0.2500000   0.2500000   0.2500000), wk =   0.5000000
        k(    2) = (  -0.2500000   0.2500000  -0.2500000), wk =   0.5000000
        k(    3) = (   0.2500000  -0.2500000  -0.2500000), wk =   1.0000000

     Dense  grid:   697371 G-vectors     FFT dimensions: ( 120, 120, 120)

     Estimated max dynamical RAM per process >       1.04 GB

     Estimated total dynamical RAM >       4.16 GB

     Initial potential from superposition of free atoms

     starting charge  255.96421, renormalised to  256.00000
     Starting wfc are  256 randomized atomic wfcs
     Checking if some PAW data can be deallocated... 

     total cpu time spent up to now is       31.7 secs

     Self-consistent Calculation

     iteration #  1     ecut=    70.00 Ry     beta= 0.70
     Davidson diagonalization with overlap
     ethr =  1.00E-02,  avg # of iterations =  2.0

     Threshold (ethr) on eigenvalues was too large:
     Diagonalizing with lowered threshold

     Davidson diagonalization with overlap
     ethr =  6.98E-04,  avg # of iterations =  1.0

     total cpu time spent up to now is      118.4 secs

     total energy              =   -2990.46246139 Ry
     Harris-Foulkes estimate   =   -2990.87995408 Ry
     estimated scf accuracy    <       1.76642213 Ry

     iteration #  2     ecut=    70.00 Ry     beta= 0.70
     Davidson diagonalization with overlap
     ethr =  6.90E-04,  avg # of iterations =  1.0

     total cpu time spent up to now is      155.5 secs

     total energy              =   -2990.52627887 Ry
     Harris-Foulkes estimate   =   -2990.53055168 Ry
     estimated scf accuracy    <       0.07827078 Ry

     iteration #  3     ecut=    70.00 Ry     beta= 0.70
     Davidson diagonalization with overlap
     ethr =  3.06E-05,  avg # of iterations =  3.0

     total cpu time spent up to now is      199.2 secs

     total energy              =   -2990.53500246 Ry
     Harris-Foulkes estimate   =   -2990.53563699 Ry
     estimated scf accuracy    <       0.00175260 Ry

     iteration #  4     ecut=    70.00 Ry     beta= 0.70
     Davidson diagonalization with overlap
     ethr =  6.85E-07,  avg # of iterations =  3.0

     total cpu time spent up to now is      259.5 secs

     total energy              =   -2990.53570156 Ry
     Harris-Foulkes estimate   =   -2990.53611313 Ry
     estimated scf accuracy    <       0.00104299 Ry

     iteration #  5     ecut=    70.00 Ry     beta= 0.70
     Davidson diagonalization with overlap
     ethr =  4.07E-07,  avg # of iterations =  3.0

     total cpu time spent up to now is      306.9 secs

     total energy              =   -2990.53589261 Ry
     Harris-Foulkes estimate   =   -2990.53594857 Ry
     estimated scf accuracy    <       0.00015142 Ry

     iteration #  6     ecut=    70.00 Ry     beta= 0.70
     Davidson diagonalization with overlap
     ethr =  5.91E-08,  avg # of iterations =  3.0

     total cpu time spent up to now is      356.7 secs

     total energy              =   -2990.53591529 Ry
     Harris-Foulkes estimate   =   -2990.53593872 Ry
     estimated scf accuracy    <       0.00007235 Ry

     iteration #  7     ecut=    70.00 Ry     beta= 0.70
     Davidson diagonalization with overlap
     ethr =  2.83E-08,  avg # of iterations =  2.0

     total cpu time spent up to now is      401.8 secs

     total energy              =   -2990.53592651 Ry
     Harris-Foulkes estimate   =   -2990.53592697 Ry
     estimated scf accuracy    <       0.00000086 Ry

     iteration #  8     ecut=    70.00 Ry     beta= 0.70
     Davidson diagonalization with overlap
     ethr =  3.34E-10,  avg # of iterations =  3.7

     total cpu time spent up to now is      470.3 secs

     total energy              =   -2990.53592735 Ry
     Harris-Foulkes estimate   =   -2990.53592760 Ry
     estimated scf accuracy    <       0.00000028 Ry

     iteration #  9     ecut=    70.00 Ry     beta= 0.70
     Davidson diagonalization with overlap
     ethr =  1.11E-10,  avg # of iterations =  2.0

     total cpu time spent up to now is      517.0 secs

     total energy              =   -2990.53592731 Ry
     Harris-Foulkes estimate   =   -2990.53592740 Ry
     estimated scf accuracy    <       0.00000007 Ry

     iteration # 10     ecut=    70.00 Ry     beta= 0.70
     Davidson diagonalization with overlap
     ethr =  2.84E-11,  avg # of iterations =  3.0

     total cpu time spent up to now is      566.6 secs

     total energy              =   -2990.53592729 Ry
     Harris-Foulkes estimate   =   -2990.53592732 Ry
     estimated scf accuracy    <       0.00000003 Ry

     iteration # 11     ecut=    70.00 Ry     beta= 0.70
     Davidson diagonalization with overlap
     ethr =  1.15E-11,  avg # of iterations =  3.0

     total cpu time spent up to now is      613.3 secs

     total energy              =   -2990.53592730 Ry
     Harris-Foulkes estimate   =   -2990.53592730 Ry
     estimated scf accuracy    <          4.7E-09 Ry

     iteration # 12     ecut=    70.00 Ry     beta= 0.70
     Davidson diagonalization with overlap
     ethr =  1.84E-12,  avg # of iterations =  3.0

     total cpu time spent up to now is      663.1 secs

     total energy              =   -2990.53592730 Ry
     Harris-Foulkes estimate   =   -2990.53592730 Ry
     estimated scf accuracy    <          1.1E-09 Ry

     iteration # 13     ecut=    70.00 Ry     beta= 0.70
     Davidson diagonalization with overlap
     ethr =  4.34E-13,  avg # of iterations =  3.0

     total cpu time spent up to now is      714.9 secs

     End of self-consistent calculation

          k = 0.2500 0.2500 0.2500 ( 87251 PWs)   bands (ev):

    -5.6250  -5.0990  -5.0965  -5.0938  -4.5995  -4.5964  -4.5941  -4.1620
    -4.0658  -4.0629  -4.0604  -3.6585  -3.6497  -3.6472  -3.6442  -3.6434
    -3.6423  -3.4595  -3.4548  -3.4520  -2.9609  -2.9547  -2.9545  -2.5936
    -2.5892  -2.5861  -2.4307  -2.4237  -2.4209  -2.4177  -2.4175  -2.4158
    -0.8872  -0.8829  -0.8781  -0.8742  -0.8737  -0.8711  -0.7828  -0.7801
    -0.7757  -0.6632  -0.6614  -0.6564  -0.5857  -0.5796  -0.5758   0.1225
     0.2045   0.2047   0.2107   0.2159   0.2163   0.2215   1.0799   1.0814
     1.0875   1.4158   1.4181   1.4211   2.0262   2.0267   2.0274   2.0306
     2.0316   2.0325   2.0864   2.0911   2.0911   2.6354   2.6388   2.6401
     2.7390   2.7415   2.7429   2.7452   2.7477   2.7500   2.7955   2.7989
     2.8024   3.1015   3.1033   3.1075   3.1088   3.1107   3.1125   3.3717
     3.3724   3.3750   3.3847   3.3871   3.3901   3.7301   3.7310   3.7359
     3.7496   3.7546   3.7567   3.8378   3.8396   3.8446   4.1029   4.1097
     4.1122   4.1127   4.1154   4.1163   4.1521   4.1537   4.1594   4.4087
     4.4714   4.4726   4.4760   4.7130   4.7149   4.7213   4.7712   4.7731
     4.7780   4.9350   4.9399   5.2420   5.2441   5.2528   5.7236   5.7292

          k =-0.2500 0.2500-0.2500 ( 87251 PWs)   bands (ev):

    -5.6251  -5.0988  -5.0963  -5.0936  -4.5992  -4.5972  -4.5939  -4.1642
    -4.0661  -4.0641  -4.0610  -3.6516  -3.6507  -3.6498  -3.6467  -3.6444
    -3.6362  -3.4576  -3.4548  -3.4498  -2.9627  -2.9624  -2.9562  -2.5924
    -2.5890  -2.5853  -2.4259  -2.4239  -2.4238  -2.4207  -2.4178  -2.4105
    -0.8860  -0.8827  -0.8825  -0.8780  -0.8735  -0.8702  -0.7846  -0.7808
    -0.7785  -0.6683  -0.6617  -0.6614  -0.5765  -0.5723  -0.5665   0.1299
     0.2004   0.2050   0.2058   0.2106   0.2168   0.2169   1.0832   1.0893
     1.0908   1.4155   1.4186   1.4207   2.0259   2.0259   2.0279   2.0307
     2.0315   2.0317   2.0852   2.0854   2.0913   2.6402   2.6413   2.6445
     2.7366   2.7381   2.7409   2.7425   2.7452   2.7470   2.7912   2.7943
     2.7978   3.1028   3.1045   3.1063   3.1077   3.1116   3.1135   3.3688
     3.3712   3.3717   3.3821   3.3848   3.3878   3.7339   3.7359   3.7395
     3.7559   3.7577   3.7656   3.8344   3.8392   3.8415   4.1121   4.1132
     4.1158   4.1160   4.1189   4.1257   4.1475   4.1533   4.1567   4.4168
     4.4659   4.4698   4.4704   4.7080   4.7137   4.7155   4.7793   4.7846
     4.7875   4.9324   4.9376   5.2346   5.2426   5.2451   5.7187   5.7244

          k = 0.2500-0.2500-0.2500 ( 87251 PWs)   bands (ev):

    -5.6250  -5.1005  -5.0963  -5.0922  -4.6008  -4.5967  -4.5928  -4.1632
    -4.0675  -4.0633  -4.0591  -3.6549  -3.6503  -3.6477  -3.6462  -3.6438
    -3.6394  -3.4593  -3.4549  -3.4502  -2.9628  -2.9585  -2.9543  -2.5944
    -2.5891  -2.5843  -2.4286  -2.4239  -2.4214  -2.4203  -2.4176  -2.4128
    -0.8860  -0.8823  -0.8786  -0.8778  -0.8744  -0.8709  -0.7857  -0.7807
    -0.7748  -0.6680  -0.6620  -0.6567  -0.5836  -0.5762  -0.5683   0.1263
     0.2043   0.2058   0.2097   0.2117   0.2159   0.2171   1.0789   1.0854
     1.0918   1.4139   1.4184   1.4227   2.0236   2.0267   2.0283   2.0301
     2.0315   2.0347   2.0858   2.0881   2.0907   2.6376   2.6401   2.6427
     2.7369   2.7394   2.7423   2.7442   2.7465   2.7493   2.7925   2.7967
     2.8003   3.1019   3.1047   3.1073   3.1079   3.1105   3.1131   3.3686
     3.3720   3.3738   3.3822   3.3869   3.3903   3.7307   3.7346   3.7384
     3.7532   3.7567   3.7597   3.8372   3.8395   3.8418   4.1059   4.1111
     4.1139   4.1146   4.1173   4.1219   4.1512   4.1536   4.1565   4.4133
     4.4677   4.4708   4.4743   4.7120   4.7144   4.7170   4.7727   4.7786
     4.7855   4.9319   4.9406   5.2403   5.2436   5.2468   5.7191   5.7289

     highest occupied level (ev):     5.7292

!    total energy              =   -2990.53592730 Ry
     Harris-Foulkes estimate   =   -2990.53592730 Ry
     estimated scf accuracy    <          1.9E-10 Ry

     total all-electron energy =    -37124.671480 Ry

     The total energy is the sum of the following terms:

     one-electron contribution =     178.60401457 Ry
     hartree contribution      =      35.70179912 Ry
     xc contribution           =    -391.44049893 Ry
     ewald contribution        =    -534.00623298 Ry
     one-center paw contrib.   =   -2279.39500908 Ry

     convergence has been achieved in  13 iterations

     Forces acting on atoms (cartesian axes, Ry/au):

     atom    1 type  1   force =    -0.01586687    0.00000090    0.00005458
     atom    2 type  1   force =     0.00002203    0.00000026   -0.00047497
     atom    3 type  1   force =     0.00005458    0.00000090   -0.01586687
     atom    4 type  1   force =    -0.00000695    0.00000022    0.00005373
     atom    5 type  1   force =     0.00005373    0.00000022   -0.00000695
     atom    6 type  1   force =    -0.00000625   -0.00000013    0.00002394
     atom    7 type  1   force =    -0.00047497    0.00000026    0.00002203
     atom    8 type  1   force =     0.00002394   -0.00000013   -0.00000625
     atom    9 type  1   force =    -0.00041912   -0.00011348    0.00034560
     atom   10 type  1   force =     0.00000909    0.00008599    0.00005128
     atom   11 type  1   force =    -0.00063434    0.00033684    0.00012175
     atom   12 type  1   force =    -0.00000888   -0.00006675    0.00003267
     atom   13 type  1   force =    -0.00040961    0.00012342    0.00034723
     atom   14 type  1   force =     0.00000930   -0.00008570    0.00005196
     atom   15 type  1   force =    -0.00064216   -0.00034694    0.00012353
     atom   16 type  1   force =    -0.00001036    0.00006656    0.00003320
     atom   17 type  1   force =     0.00015447   -0.00011940    0.00026952
     atom   18 type  1   force =     0.00031470   -0.00010448   -0.00019036
     atom   19 type  1   force =     0.00026952   -0.00011940    0.00015447
     atom   20 type  1   force =    -0.00018459    0.00010052    0.00030775
     atom   21 type  1   force =     0.00030775    0.00010052   -0.00018459
     atom   22 type  1   force =     0.00016149    0.00012338    0.00027464
     atom   23 type  1   force =    -0.00019036   -0.00010448    0.00031470
     atom   24 type  1   force =     0.00027464    0.00012338    0.00016149
     atom   25 type  1   force =     0.00012175    0.00033684   -0.00063434
     atom   26 type  1   force =     0.00012353   -0.00034694   -0.00064216
     atom   27 type  1   force =     0.00034560   -0.00011348   -0.00041912
     atom   28 type  1   force =     0.00034723    0.00012342   -0.00040961
     atom   29 type  1   force =     0.00003267   -0.00006675   -0.00000888
     atom   30 type  1   force =     0.00003320    0.00006656   -0.00001036
     atom   31 type  1   force =     0.00005128    0.00008599    0.00000909
     atom   32 type  1   force =     0.00005196   -0.00008570    0.00000930
     atom   33 type  1   force =     0.00000278    0.00005766    0.00005779
     atom   34 type  1   force =     0.00029381    0.00006599    0.00001511
     atom   35 type  1   force =     0.00005779    0.00005766    0.00000278
     atom   36 type  1   force =    -0.00003470    0.00007485    0.00006470
     atom   37 type  1   force =     0.00006470    0.00007485   -0.00003470
     atom   38 type  1   force =     0.00264389    0.00274299    0.00397880
     atom   39 type  1   force =     0.00001511    0.00006599    0.00029381
     atom   40 type  1   force =     0.00397880    0.00274299    0.00264389
     atom   41 type  1   force =    -0.00003993   -0.00001083    0.00021387
     atom   42 type  1   force =     0.00387655   -0.00266732   -0.00276277
     atom   43 type  1   force =    -0.00001121    0.00002709   -0.00008609
     atom   44 type  1   force =    -0.00254304    0.00244323    0.00376131
     atom   45 type  1   force =    -0.00000478    0.00000474   -0.00004605
     atom   46 type  1   force =    -0.00009002   -0.00002375   -0.00001139
     atom   47 type  1   force =    -0.00004832   -0.00000270   -0.00000292
     atom   48 type  1   force =     0.00021791    0.00000983   -0.00004123
     atom   49 type  1   force =     0.00242242   -0.00251919    0.00386189
     atom   50 type  1   force =     0.00006534   -0.00007855   -0.00003028
     atom   51 type  1   force =     0.00386189   -0.00251919    0.00242242
     atom   52 type  1   force =     0.00001482   -0.00006563    0.00029053
     atom   53 type  1   force =     0.00029053   -0.00006563    0.00001482
     atom   54 type  1   force =     0.00000429   -0.00005965    0.00005893
     atom   55 type  1   force =    -0.00003028   -0.00007855    0.00006534
     atom   56 type  1   force =     0.00005893   -0.00005965    0.00000429
     atom   57 type  1   force =    -0.00008609    0.00002709   -0.00001121
     atom   58 type  1   force =    -0.00000292   -0.00000270   -0.00004832
     atom   59 type  1   force =     0.00021387   -0.00001083   -0.00003993
     atom   60 type  1   force =    -0.00004605    0.00000474   -0.00000478
     atom   61 type  1   force =     0.00376131    0.00244323   -0.00254304
     atom   62 type  1   force =    -0.00004123    0.00000983    0.00021791
     atom   63 type  1   force =    -0.00276277   -0.00266732    0.00387655
     atom   64 type  1   force =    -0.00001139   -0.00002375   -0.00009002

     Total force =     0.027144     Total SCF correction =     0.000025


     Computing stress (Cartesian axis) and pressure

          total   stress  (Ry/bohr**3)                   (kbar)     P=    0.12
   0.00000074   0.00000238   0.00000000          0.11      0.35      0.00
   0.00000238   0.00000089   0.00000238          0.35      0.13      0.35
   0.00000000   0.00000238   0.00000074          0.00      0.35      0.11


     init_run     :     31.02s CPU     31.61s WALL (       1 calls)
     electrons    :    667.97s CPU    683.20s WALL (       1 calls)
     forces       :     10.38s CPU     10.56s WALL (       1 calls)
     stress       :     44.51s CPU     44.81s WALL (       1 calls)

     Called by init_run:
     wfcinit      :     27.87s CPU     28.37s WALL (       1 calls)
     potinit      :      1.07s CPU      1.09s WALL (       1 calls)

     Called by electrons:
     c_bands      :    549.50s CPU    561.88s WALL (      14 calls)
     sum_band     :    101.82s CPU    103.73s WALL (      14 calls)
     v_of_rho     :      5.50s CPU      5.58s WALL (      14 calls)
     newd         :      2.87s CPU      3.73s WALL (      14 calls)
     PAW_pot      :      8.12s CPU      8.13s WALL (      14 calls)
     mix_rho      :      1.20s CPU      1.26s WALL (      14 calls)

     Called by c_bands:
     init_us_2    :      5.63s CPU      5.66s WALL (      93 calls)
     cegterg      :    538.39s CPU    550.74s WALL (      42 calls)

     Called by sum_band:
     sum_band:bec :      0.00s CPU      0.01s WALL (      42 calls)
     addusdens    :      3.52s CPU      4.34s WALL (      14 calls)

     Called by *egterg:
     h_psi        :    477.81s CPU    485.36s WALL (     152 calls)
     s_psi        :     27.58s CPU     27.58s WALL (     152 calls)
     g_psi        :      0.95s CPU      0.96s WALL (     107 calls)
     cdiaghg      :      3.61s CPU      3.61s WALL (     146 calls)

     Called by h_psi:
     h_psi:pot    :    474.78s CPU    482.29s WALL (     152 calls)
     h_psi:calbec :     27.39s CPU     27.42s WALL (     152 calls)
     vloc_psi     :    419.93s CPU    427.39s WALL (     152 calls)
     add_vuspsi   :     27.46s CPU     27.47s WALL (     152 calls)

     General routines
     calbec       :     40.46s CPU     40.50s WALL (     209 calls)
     fft          :      4.72s CPU      4.94s WALL (     209 calls)
     fftw         :    423.79s CPU    432.26s WALL (   36762 calls)

     Parallel routines
     fft_scatt_xy :     71.90s CPU     72.19s WALL (   36971 calls)
     fft_scatt_yz :     78.23s CPU     82.46s WALL (   36971 calls)

     PWSCF        : 12m33.99s CPU    12m50.32s WALL


   This run was terminated on:  16: 6:38  24Oct2021            

=------------------------------------------------------------------------------=
   JOB DONE.
=------------------------------------------------------------------------------=
Note: The following floating-point exceptions are signalling: IEEE_UNDERFLOW_FLAG IEEE_DENORMAL
