
     Program PWSCF v.6.2 (svn rev. 13949:13950) starts on 24Oct2021 at 22:59:12 

     This program is part of the open-source Quantum ESPRESSO suite
     for quantum simulation of materials; please cite
         "P. Giannozzi et al., J. Phys.:Condens. Matter 21 395502 (2009);
         "P. Giannozzi et al., J. Phys.:Condens. Matter 29 465901 (2017);
          URL http://www.quantum-espresso.org", 
     in publications or presentations arising from this work. More details at
     http://www.quantum-espresso.org/quote

     Parallel version (MPI), running on     4 processors

     MPI processes distributed on     1 nodes
     R & G space division:  proc/nbgrp/npool/nimage =       4
     Reading input from headeradd_supercell-00035.in

     Current dimensions of program PWSCF are:
     Max number of different atomic species (ntypx) = 10
     Max number of k-points (npk) =  40000
     Max angular momentum in pseudopotentials (lmaxx) =  3
     Message from routine iosys:
     minimal I/O required, wf_collect reset to FALSE
               file Si.pbe-n-kjpaw_psl.0.1.UPF: wavefunction(s)  3S renormalized

     Subspace diagonalization in iterative solution of the eigenvalue problem:
     a serial algorithm will be used


     Parallelization info
     --------------------
     sticks:   dense  smooth     PW     G-vecs:    dense   smooth      PW
     Min        2372    2372    612               174341   174341   22844
     Max        2374    2374    613               174344   174344   22847
     Sum        9493    9493   2449               697371   697371   91383



     bravais-lattice index     =            0
     lattice parameter (alat)  =      20.6591  a.u.
     unit-cell volume          =    8817.2783 (a.u.)^3
     number of atoms/cell      =           64
     number of atomic types    =            1
     number of electrons       =       256.00
     number of Kohn-Sham states=          128
     kinetic-energy cutoff     =      70.0000  Ry
     charge density cutoff     =     280.0000  Ry
     convergence threshold     =      1.0E-09
     mixing beta               =       0.7000
     number of iterations used =            8  plain     mixing
     Exchange-correlation      =  SLA  PW   PBX  PBC ( 1  4  3  4 0 0)

     celldm(1)=  20.659106  celldm(2)=   0.000000  celldm(3)=   0.000000
     celldm(4)=   0.000000  celldm(5)=   0.000000  celldm(6)=   0.000000

     crystal axes: (cart. coord. in units of alat)
               a(1) = (   1.000000   0.000000   0.000000 )  
               a(2) = (   0.000000   1.000000   0.000000 )  
               a(3) = (   0.000000   0.000000   1.000000 )  

     reciprocal axes: (cart. coord. in units 2 pi/alat)
               b(1) = (  1.000000  0.000000  0.000000 )  
               b(2) = (  0.000000  1.000000  0.000000 )  
               b(3) = (  0.000000  0.000000  1.000000 )  


     PseudoPot. # 1 for Si read from file:
     /home/uezono/pseudo/Si.pbe-n-kjpaw_psl.0.1.UPF
     MD5 check sum: 0810ef13ebffcf5dbabd57b297315270
     Pseudo is Projector augmented-wave + core cor, Zval =  4.0
     Generated using "atomic" code by A. Dal Corso  v.5.0.2 svn rev. 9415
     Shape of augmentation charge: PSQ
     Using radial grid of 1141 points,  4 beta functions with: 
                l(1) =   0
                l(2) =   0
                l(3) =   1
                l(4) =   1
     Q(r) pseudized with 0 coefficients 


     atomic species   valence    mass     pseudopotential
        Si             4.00    28.08550     Si( 1.00)

     No symmetry found



   Cartesian axes

     site n.     atom                  positions (alat units)
         1           Si  tau(   1) = (   0.4404043   0.4375000   0.4375000  )
         2           Si  tau(   2) = (   0.9375000   0.4375000   0.4375000  )
         3           Si  tau(   3) = (   0.4375000   0.9375000   0.4375000  )
         4           Si  tau(   4) = (   0.9375000   0.9375000   0.4375000  )
         5           Si  tau(   5) = (   0.4375000   0.4375000   0.9375000  )
         6           Si  tau(   6) = (   0.9375000   0.4375000   0.9375000  )
         7           Si  tau(   7) = (   0.4375000   0.9375000   0.9375000  )
         8           Si  tau(   8) = (   0.9375000   0.9375000   0.9375000  )
         9           Si  tau(   9) = (   0.4375000   0.1875000   0.1875000  )
        10           Si  tau(  10) = (   0.9375000   0.1875000   0.1875000  )
        11           Si  tau(  11) = (   0.4375000   0.6875000   0.1875000  )
        12           Si  tau(  12) = (   0.9375000   0.6875000   0.1875000  )
        13           Si  tau(  13) = (   0.4375000   0.1875000   0.6875000  )
        14           Si  tau(  14) = (   0.9375000   0.1875000   0.6875000  )
        15           Si  tau(  15) = (   0.4375000   0.6875000   0.6875000  )
        16           Si  tau(  16) = (   0.9375000   0.6875000   0.6875000  )
        17           Si  tau(  17) = (   0.1875000   0.4345957   0.1875000  )
        18           Si  tau(  18) = (   0.6875000   0.4375000   0.1875000  )
        19           Si  tau(  19) = (   0.1875000   0.9375000   0.1875000  )
        20           Si  tau(  20) = (   0.6875000   0.9375000   0.1875000  )
        21           Si  tau(  21) = (   0.1875000   0.4375000   0.6875000  )
        22           Si  tau(  22) = (   0.6875000   0.4375000   0.6875000  )
        23           Si  tau(  23) = (   0.1875000   0.9375000   0.6875000  )
        24           Si  tau(  24) = (   0.6875000   0.9375000   0.6875000  )
        25           Si  tau(  25) = (   0.1875000   0.1875000   0.4375000  )
        26           Si  tau(  26) = (   0.6875000   0.1875000   0.4375000  )
        27           Si  tau(  27) = (   0.1875000   0.6875000   0.4375000  )
        28           Si  tau(  28) = (   0.6875000   0.6875000   0.4375000  )
        29           Si  tau(  29) = (   0.1875000   0.1875000   0.9375000  )
        30           Si  tau(  30) = (   0.6875000   0.1875000   0.9375000  )
        31           Si  tau(  31) = (   0.1875000   0.6875000   0.9375000  )
        32           Si  tau(  32) = (   0.6875000   0.6875000   0.9375000  )
        33           Si  tau(  33) = (   0.0625000   0.0625000   0.0625000  )
        34           Si  tau(  34) = (   0.5625000   0.0625000   0.0625000  )
        35           Si  tau(  35) = (   0.0625000   0.5625000   0.0625000  )
        36           Si  tau(  36) = (   0.5625000   0.5625000   0.0625000  )
        37           Si  tau(  37) = (   0.0625000   0.0625000   0.5625000  )
        38           Si  tau(  38) = (   0.5625000   0.0625000   0.5625000  )
        39           Si  tau(  39) = (   0.0625000   0.5625000   0.5625000  )
        40           Si  tau(  40) = (   0.5625000   0.5625000   0.5625000  )
        41           Si  tau(  41) = (   0.0625000   0.3125000   0.3125000  )
        42           Si  tau(  42) = (   0.5625000   0.3125000   0.3125000  )
        43           Si  tau(  43) = (   0.0625000   0.8125000   0.3125000  )
        44           Si  tau(  44) = (   0.5625000   0.8125000   0.3125000  )
        45           Si  tau(  45) = (   0.0625000   0.3125000   0.8125000  )
        46           Si  tau(  46) = (   0.5625000   0.3125000   0.8125000  )
        47           Si  tau(  47) = (   0.0625000   0.8125000   0.8125000  )
        48           Si  tau(  48) = (   0.5625000   0.8125000   0.8125000  )
        49           Si  tau(  49) = (   0.3125000   0.0625000   0.3125000  )
        50           Si  tau(  50) = (   0.8125000   0.0625000   0.3125000  )
        51           Si  tau(  51) = (   0.3125000   0.5625000   0.3125000  )
        52           Si  tau(  52) = (   0.8125000   0.5625000   0.3125000  )
        53           Si  tau(  53) = (   0.3125000   0.0625000   0.8125000  )
        54           Si  tau(  54) = (   0.8125000   0.0625000   0.8125000  )
        55           Si  tau(  55) = (   0.3125000   0.5625000   0.8125000  )
        56           Si  tau(  56) = (   0.8125000   0.5625000   0.8125000  )
        57           Si  tau(  57) = (   0.3125000   0.3125000   0.0625000  )
        58           Si  tau(  58) = (   0.8125000   0.3125000   0.0625000  )
        59           Si  tau(  59) = (   0.3125000   0.8125000   0.0625000  )
        60           Si  tau(  60) = (   0.8125000   0.8125000   0.0625000  )
        61           Si  tau(  61) = (   0.3125000   0.3125000   0.5625000  )
        62           Si  tau(  62) = (   0.8125000   0.3125000   0.5625000  )
        63           Si  tau(  63) = (   0.3125000   0.8125000   0.5625000  )
        64           Si  tau(  64) = (   0.8125000   0.8125000   0.5625000  )

     number of k points=     4
                       cart. coord. in units 2pi/alat
        k(    1) = (   0.2500000   0.2500000   0.2500000), wk =   0.5000000
        k(    2) = (  -0.2500000  -0.2500000   0.2500000), wk =   0.5000000
        k(    3) = (  -0.2500000   0.2500000  -0.2500000), wk =   0.5000000
        k(    4) = (   0.2500000  -0.2500000  -0.2500000), wk =   0.5000000

     Dense  grid:   697371 G-vectors     FFT dimensions: ( 120, 120, 120)

     Estimated max dynamical RAM per process >       1.08 GB

     Estimated total dynamical RAM >       4.33 GB

     Initial potential from superposition of free atoms

     starting charge  255.96421, renormalised to  256.00000
     Starting wfc are  256 randomized atomic wfcs
     Checking if some PAW data can be deallocated... 

     total cpu time spent up to now is       41.1 secs

     Self-consistent Calculation

     iteration #  1     ecut=    70.00 Ry     beta= 0.70
     Davidson diagonalization with overlap
     ethr =  1.00E-02,  avg # of iterations =  2.0

     Threshold (ethr) on eigenvalues was too large:
     Diagonalizing with lowered threshold

     Davidson diagonalization with overlap
     ethr =  6.98E-04,  avg # of iterations =  1.0

     total cpu time spent up to now is      155.5 secs

     total energy              =   -2990.46250551 Ry
     Harris-Foulkes estimate   =   -2990.88042590 Ry
     estimated scf accuracy    <       1.76637925 Ry

     iteration #  2     ecut=    70.00 Ry     beta= 0.70
     Davidson diagonalization with overlap
     ethr =  6.90E-04,  avg # of iterations =  1.0

     total cpu time spent up to now is      204.2 secs

     total energy              =   -2990.52629038 Ry
     Harris-Foulkes estimate   =   -2990.53059632 Ry
     estimated scf accuracy    <       0.07827546 Ry

     iteration #  3     ecut=    70.00 Ry     beta= 0.70
     Davidson diagonalization with overlap
     ethr =  3.06E-05,  avg # of iterations =  2.2

     total cpu time spent up to now is      261.2 secs

     total energy              =   -2990.53500180 Ry
     Harris-Foulkes estimate   =   -2990.53564570 Ry
     estimated scf accuracy    <       0.00176135 Ry

     iteration #  4     ecut=    70.00 Ry     beta= 0.70
     Davidson diagonalization with overlap
     ethr =  6.88E-07,  avg # of iterations =  3.0

     total cpu time spent up to now is      342.2 secs

     total energy              =   -2990.53562403 Ry
     Harris-Foulkes estimate   =   -2990.53618546 Ry
     estimated scf accuracy    <       0.00158814 Ry

     iteration #  5     ecut=    70.00 Ry     beta= 0.70
     Davidson diagonalization with overlap
     ethr =  6.20E-07,  avg # of iterations =  2.5

     total cpu time spent up to now is      402.2 secs

     total energy              =   -2990.53589558 Ry
     Harris-Foulkes estimate   =   -2990.53595858 Ry
     estimated scf accuracy    <       0.00018555 Ry

     iteration #  6     ecut=    70.00 Ry     beta= 0.70
     Davidson diagonalization with overlap
     ethr =  7.25E-08,  avg # of iterations =  3.0

     total cpu time spent up to now is      465.6 secs

     total energy              =   -2990.53592481 Ry
     Harris-Foulkes estimate   =   -2990.53594100 Ry
     estimated scf accuracy    <       0.00004284 Ry

     iteration #  7     ecut=    70.00 Ry     beta= 0.70
     Davidson diagonalization with overlap
     ethr =  1.67E-08,  avg # of iterations =  2.0

     total cpu time spent up to now is      528.8 secs

     total energy              =   -2990.53593331 Ry
     Harris-Foulkes estimate   =   -2990.53593387 Ry
     estimated scf accuracy    <       0.00000106 Ry

     iteration #  8     ecut=    70.00 Ry     beta= 0.70
     Davidson diagonalization with overlap
     ethr =  4.14E-10,  avg # of iterations =  3.0

     total cpu time spent up to now is      611.7 secs

     total energy              =   -2990.53593383 Ry
     Harris-Foulkes estimate   =   -2990.53593407 Ry
     estimated scf accuracy    <       0.00000039 Ry

     iteration #  9     ecut=    70.00 Ry     beta= 0.70
     Davidson diagonalization with overlap
     ethr =  1.53E-10,  avg # of iterations =  3.0

     total cpu time spent up to now is      672.7 secs

     total energy              =   -2990.53593378 Ry
     Harris-Foulkes estimate   =   -2990.53593392 Ry
     estimated scf accuracy    <       0.00000017 Ry

     iteration # 10     ecut=    70.00 Ry     beta= 0.70
     Davidson diagonalization with overlap
     ethr =  6.69E-11,  avg # of iterations =  2.2

     total cpu time spent up to now is      732.1 secs

     total energy              =   -2990.53593375 Ry
     Harris-Foulkes estimate   =   -2990.53593380 Ry
     estimated scf accuracy    <       0.00000002 Ry

     iteration # 11     ecut=    70.00 Ry     beta= 0.70
     Davidson diagonalization with overlap
     ethr =  7.02E-12,  avg # of iterations =  3.0

     total cpu time spent up to now is      799.6 secs

     total energy              =   -2990.53593376 Ry
     Harris-Foulkes estimate   =   -2990.53593375 Ry
     estimated scf accuracy    <          3.4E-09 Ry

     iteration # 12     ecut=    70.00 Ry     beta= 0.70
     Davidson diagonalization with overlap
     ethr =  1.32E-12,  avg # of iterations =  3.0

     total cpu time spent up to now is      870.4 secs

     total energy              =   -2990.53593376 Ry
     Harris-Foulkes estimate   =   -2990.53593376 Ry
     estimated scf accuracy    <          1.5E-09 Ry

     iteration # 13     ecut=    70.00 Ry     beta= 0.70
     Davidson diagonalization with overlap
     ethr =  5.93E-13,  avg # of iterations =  3.0

     total cpu time spent up to now is      934.7 secs

     End of self-consistent calculation

          k = 0.2500 0.2500 0.2500 ( 87251 PWs)   bands (ev):

    -5.6250  -5.1004  -5.0959  -5.0927  -4.6008  -4.5963  -4.5932  -4.1632
    -4.0672  -4.0626  -4.0600  -3.6554  -3.6493  -3.6484  -3.6463  -3.6448
    -3.6383  -3.4589  -3.4549  -3.4505  -2.9621  -2.9580  -2.9555  -2.5931
    -2.5890  -2.5857  -2.4287  -2.4240  -2.4221  -2.4203  -2.4182  -2.4110
    -0.8876  -0.8819  -0.8792  -0.8776  -0.8752  -0.8687  -0.7837  -0.7804
    -0.7770  -0.6677  -0.6622  -0.6567  -0.5813  -0.5771  -0.5698   0.1262
     0.2019   0.2068   0.2102   0.2114   0.2139   0.2204   1.0813   1.0850
     1.0897   1.4144   1.4184   1.4222   2.0239   2.0270   2.0285   2.0289
     2.0325   2.0338   2.0853   2.0879   2.0916   2.6377   2.6402   2.6423
     2.7370   2.7397   2.7427   2.7435   2.7464   2.7491   2.7920   2.7974
     2.8004   3.1000   3.1063   3.1072   3.1084   3.1096   3.1140   3.3690
     3.3714   3.3743   3.3824   3.3866   3.3900   3.7305   3.7345   3.7383
     3.7528   3.7562   3.7610   3.8362   3.8392   3.8431   4.1068   4.1117
     4.1136   4.1147   4.1159   4.1225   4.1498   4.1531   4.1585   4.4129
     4.4676   4.4708   4.4747   4.7107   4.7141   4.7184   4.7753   4.7783
     4.7831   4.9318   4.9406   5.2385   5.2430   5.2491   5.7191   5.7289

          k =-0.2500-0.2500 0.2500 ( 87251 PWs)   bands (ev):

    -5.6250  -5.0999  -5.0967  -5.0924  -4.6004  -4.5971  -4.5927  -4.1632
    -4.0670  -4.0638  -4.0594  -3.6556  -3.6492  -3.6489  -3.6470  -3.6442
    -3.6374  -3.4590  -3.4548  -3.4505  -2.9628  -2.9595  -2.9534  -2.5929
    -2.5892  -2.5856  -2.4283  -2.4234  -2.4225  -2.4208  -2.4183  -2.4112
    -0.8854  -0.8814  -0.8796  -0.8781  -0.8752  -0.8702  -0.7840  -0.7806
    -0.7769  -0.6675  -0.6622  -0.6568  -0.5832  -0.5766  -0.5684   0.1263
     0.2033   0.2067   0.2082   0.2116   0.2148   0.2200   1.0797   1.0849
     1.0915   1.4140   1.4181   1.4228   2.0245   2.0266   2.0289   2.0296
     2.0313   2.0336   2.0855   2.0878   2.0918   2.6378   2.6399   2.6424
     2.7384   2.7389   2.7413   2.7434   2.7472   2.7491   2.7934   2.7963
     2.8002   3.1010   3.1053   3.1063   3.1076   3.1105   3.1147   3.3687
     3.3723   3.3737   3.3820   3.3867   3.3904   3.7304   3.7348   3.7378
     3.7532   3.7570   3.7599   3.8367   3.8389   3.8430   4.1068   4.1114
     4.1134   4.1145   4.1171   4.1220   4.1504   4.1530   4.1578   4.4132
     4.4674   4.4714   4.4740   4.7112   4.7138   4.7182   4.7730   4.7785
     4.7854   4.9318   4.9406   5.2392   5.2428   5.2487   5.7190   5.7289

          k =-0.2500 0.2500-0.2500 ( 87251 PWs)   bands (ev):

    -5.6251  -5.0989  -5.0978  -5.0919  -4.5993  -4.5983  -4.5927  -4.1642
    -4.0663  -4.0651  -4.0598  -3.6521  -3.6504  -3.6484  -3.6474  -3.6472
    -3.6339  -3.4576  -3.4554  -3.4491  -2.9630  -2.9612  -2.9570  -2.5925
    -2.5908  -2.5834  -2.4259  -2.4242  -2.4225  -2.4213  -2.4200  -2.4088
    -0.8850  -0.8822  -0.8807  -0.8786  -0.8757  -0.8709  -0.7854  -0.7830
    -0.7753  -0.6685  -0.6630  -0.6602  -0.5775  -0.5751  -0.5628   0.1301
     0.2017   0.2047   0.2080   0.2102   0.2124   0.2185   1.0828   1.0868
     1.0937   1.4152   1.4195   1.4200   2.0252   2.0256   2.0278   2.0303
     2.0320   2.0329   2.0845   2.0875   2.0896   2.6399   2.6413   2.6449
     2.7365   2.7376   2.7404   2.7432   2.7461   2.7471   2.7919   2.7931
     2.7978   3.1028   3.1049   3.1063   3.1075   3.1098   3.1150   3.3686
     3.3696   3.3726   3.3829   3.3862   3.3866   3.7338   3.7350   3.7402
     3.7563   3.7590   3.7642   3.8365   3.8377   3.8410   4.1119   4.1126
     4.1137   4.1167   4.1209   4.1255   4.1502   4.1517   4.1559   4.4172
     4.4669   4.4678   4.4711   4.7102   4.7119   4.7152   4.7790   4.7816
     4.7908   4.9325   4.9376   5.2376   5.2403   5.2444   5.7187   5.7244

          k = 0.2500-0.2500-0.2500 ( 87251 PWs)   bands (ev):

    -5.6250  -5.1008  -5.0948  -5.0938  -4.6012  -4.5950  -4.5940  -4.1622
    -4.0676  -4.0614  -4.0600  -3.6566  -3.6521  -3.6471  -3.6444  -3.6438
    -3.6414  -3.4600  -3.4543  -3.4520  -2.9620  -2.9555  -2.9525  -2.5955
    -2.5876  -2.5857  -2.4285  -2.4263  -2.4210  -2.4187  -2.4174  -2.4144
    -0.8856  -0.8831  -0.8781  -0.8749  -0.8744  -0.8709  -0.7855  -0.7777
    -0.7755  -0.6641  -0.6615  -0.6556  -0.5852  -0.5808  -0.5752   0.1225
     0.2026   0.2079   0.2105   0.2141   0.2185   0.2200   1.0786   1.0827
     1.0876   1.4152   1.4188   1.4211   2.0248   2.0274   2.0290   2.0300
     2.0306   2.0336   2.0866   2.0901   2.0914   2.6353   2.6389   2.6402
     2.7395   2.7408   2.7429   2.7443   2.7475   2.7514   2.7967   2.7979
     2.8019   3.1015   3.1034   3.1068   3.1092   3.1105   3.1130   3.3711
     3.3730   3.3742   3.3840   3.3882   3.3907   3.7283   3.7335   3.7359
     3.7488   3.7547   3.7566   3.8380   3.8398   3.8443   4.1042   4.1080
     4.1108   4.1141   4.1148   4.1171   4.1521   4.1540   4.1590   4.4088
     4.4711   4.4740   4.4749   4.7133   4.7152   4.7209   4.7701   4.7741
     4.7781   4.9350   4.9399   5.2422   5.2447   5.2519   5.7234   5.7293

     highest occupied level (ev):     5.7293

!    total energy              =   -2990.53593376 Ry
     Harris-Foulkes estimate   =   -2990.53593376 Ry
     estimated scf accuracy    <          6.2E-10 Ry

     total all-electron energy =    -37124.671487 Ry

     The total energy is the sum of the following terms:

     one-electron contribution =     178.60400695 Ry
     hartree contribution      =      35.70179778 Ry
     xc contribution           =    -391.44049776 Ry
     ewald contribution        =    -534.00623057 Ry
     one-center paw contrib.   =   -2279.39501016 Ry

     convergence has been achieved in  13 iterations

     Forces acting on atoms (cartesian axes, Ry/au):

     atom    1 type  1   force =    -0.01576110    0.00052347    0.00010928
     atom    2 type  1   force =     0.00013625    0.00052835   -0.00011389
     atom    3 type  1   force =     0.00006417   -0.00000018    0.00000961
     atom    4 type  1   force =     0.00000244    0.00000133   -0.00000951
     atom    5 type  1   force =    -0.00005968    0.00052810    0.00011411
     atom    6 type  1   force =    -0.00011633    0.00052298   -0.00010991
     atom    7 type  1   force =    -0.00048453    0.00000101    0.00000906
     atom    8 type  1   force =     0.00001424    0.00000018   -0.00001013
     atom    9 type  1   force =    -0.00029588   -0.00012364    0.00000080
     atom   10 type  1   force =    -0.00023307   -0.00022894    0.00012359
     atom   11 type  1   force =    -0.00075023   -0.00012159   -0.00021763
     atom   12 type  1   force =     0.00022742   -0.00022114    0.00010076
     atom   13 type  1   force =    -0.00059989   -0.00015181    0.00009981
     atom   14 type  1   force =     0.00007619   -0.00005246    0.00001872
     atom   15 type  1   force =    -0.00045223   -0.00015613   -0.00012417
     atom   16 type  1   force =    -0.00007746   -0.00005102   -0.00000023
     atom   17 type  1   force =     0.00022764    0.01576109    0.00023014
     atom   18 type  1   force =     0.00023778   -0.00016848   -0.00023219
     atom   19 type  1   force =     0.00004157   -0.00003112   -0.00007621
     atom   20 type  1   force =     0.00004338   -0.00000246    0.00007700
     atom   21 type  1   force =     0.00023041    0.00005476   -0.00022792
     atom   22 type  1   force =     0.00023839    0.00058827    0.00023344
     atom   23 type  1   force =     0.00004151    0.00001675    0.00007667
     atom   24 type  1   force =     0.00004302   -0.00001364   -0.00007671
     atom   25 type  1   force =     0.00011663   -0.00001078    0.00012351
     atom   26 type  1   force =     0.00022950   -0.00027620   -0.00019068
     atom   27 type  1   force =     0.00012095   -0.00045577   -0.00011396
     atom   28 type  1   force =     0.00022850    0.00019088    0.00018978
     atom   29 type  1   force =     0.00015506   -0.00031469   -0.00024259
     atom   30 type  1   force =     0.00005260    0.00003366    0.00006612
     atom   31 type  1   force =     0.00015120   -0.00015358    0.00023664
     atom   32 type  1   force =     0.00005234   -0.00011819   -0.00006758
     atom   33 type  1   force =     0.00001555    0.00004420    0.00006960
     atom   34 type  1   force =     0.00028243   -0.00000051    0.00005695
     atom   35 type  1   force =     0.00250902   -0.00378508    0.00250776
     atom   36 type  1   force =    -0.00002310    0.00010914    0.00009109
     atom   37 type  1   force =     0.00005377   -0.00000336    0.00005275
     atom   38 type  1   force =    -0.00002891    0.00006064    0.00008099
     atom   39 type  1   force =     0.00003840    0.00009707    0.00007530
     atom   40 type  1   force =     0.00395743    0.00245083    0.00272944
     atom   41 type  1   force =    -0.00271743   -0.00396800    0.00266705
     atom   42 type  1   force =     0.00389041   -0.00264371   -0.00265333
     atom   43 type  1   force =    -0.00001225   -0.00001133    0.00001152
     atom   44 type  1   force =    -0.00008521   -0.00006430   -0.00002389
     atom   45 type  1   force =    -0.00002509    0.00003384    0.00001373
     atom   46 type  1   force =    -0.00008799   -0.00030655   -0.00001124
     atom   47 type  1   force =    -0.00004869   -0.00005645   -0.00000716
     atom   48 type  1   force =     0.00022562   -0.00000584    0.00000268
     atom   49 type  1   force =    -0.00009772   -0.00002465    0.00001381
     atom   50 type  1   force =     0.00000226   -0.00005459    0.00000114
     atom   51 type  1   force =     0.00133321   -0.00629579   -0.00000450
     atom   52 type  1   force =    -0.00004981    0.00002120   -0.00001359
     atom   53 type  1   force =     0.00022300   -0.00005545    0.00000073
     atom   54 type  1   force =    -0.00005224   -0.00000880   -0.00000075
     atom   55 type  1   force =    -0.00011115    0.00000731   -0.00000014
     atom   56 type  1   force =     0.00000073   -0.00028155   -0.00000128
     atom   57 type  1   force =     0.00264597   -0.00387794   -0.00274114
     atom   58 type  1   force =     0.00006733    0.00008935   -0.00007666
     atom   59 type  1   force =     0.00028986    0.00004093   -0.00006554
     atom   60 type  1   force =     0.00000309    0.00000568   -0.00005685
     atom   61 type  1   force =     0.00385920    0.00254257   -0.00252185
     atom   62 type  1   force =     0.00001556   -0.00021901   -0.00006582
     atom   63 type  1   force =    -0.00003349    0.00001206   -0.00007675
     atom   64 type  1   force =     0.00005940    0.00004909   -0.00005978

     Total force =     0.026765     Total SCF correction =     0.000050


     Computing stress (Cartesian axis) and pressure

          total   stress  (Ry/bohr**3)                   (kbar)     P=    0.12
   0.00000074   0.00000000  -0.00000238          0.11      0.00     -0.35
   0.00000000   0.00000074   0.00000238          0.00      0.11      0.35
  -0.00000238   0.00000238   0.00000089         -0.35      0.35      0.13


     init_run     :     40.19s CPU     41.03s WALL (       1 calls)
     electrons    :    873.40s CPU    893.60s WALL (       1 calls)
     forces       :     11.63s CPU     11.82s WALL (       1 calls)
     stress       :     56.48s CPU     56.79s WALL (       1 calls)

     Called by init_run:
     wfcinit      :     37.09s CPU     37.84s WALL (       1 calls)
     potinit      :      1.08s CPU      1.09s WALL (       1 calls)

     Called by electrons:
     c_bands      :    724.82s CPU    741.84s WALL (      14 calls)
     sum_band     :    131.96s CPU    134.19s WALL (      14 calls)
     v_of_rho     :      5.38s CPU      5.57s WALL (      14 calls)
     newd         :      2.92s CPU      3.73s WALL (      14 calls)
     PAW_pot      :      8.11s CPU      8.11s WALL (      14 calls)
     mix_rho      :      1.22s CPU      1.26s WALL (      14 calls)

     Called by c_bands:
     init_us_2    :      7.89s CPU      7.92s WALL (     124 calls)
     cegterg      :    709.95s CPU    726.91s WALL (      56 calls)

     Called by sum_band:
     sum_band:bec :      0.02s CPU      0.02s WALL (      56 calls)
     addusdens    :      3.53s CPU      4.34s WALL (      14 calls)

     Called by *egterg:
     h_psi        :    631.86s CPU    642.59s WALL (     196 calls)
     s_psi        :     36.50s CPU     36.47s WALL (     196 calls)
     g_psi        :      1.25s CPU      1.26s WALL (     136 calls)
     cdiaghg      :      4.53s CPU      4.47s WALL (     188 calls)

     Called by h_psi:
     h_psi:pot    :    627.96s CPU    638.55s WALL (     196 calls)
     h_psi:calbec :     36.15s CPU     36.18s WALL (     196 calls)
     vloc_psi     :    555.51s CPU    566.10s WALL (     196 calls)
     add_vuspsi   :     36.30s CPU     36.27s WALL (     196 calls)

     General routines
     calbec       :     53.32s CPU     53.37s WALL (     272 calls)
     fft          :      4.56s CPU      4.82s WALL (     209 calls)
     fftw         :    561.26s CPU    572.65s WALL (   48836 calls)

     Parallel routines
     fft_scatt_xy :     93.98s CPU     94.19s WALL (   49045 calls)
     fft_scatt_yz :    103.75s CPU    110.38s WALL (   49045 calls)

     PWSCF        : 16m21.80s CPU    16m43.37s WALL


   This run was terminated on:  23:15:56  24Oct2021            

=------------------------------------------------------------------------------=
   JOB DONE.
=------------------------------------------------------------------------------=
Note: The following floating-point exceptions are signalling: IEEE_UNDERFLOW_FLAG IEEE_DENORMAL
