
     Program PWSCF v.6.2 (svn rev. 13949:13950) starts on 24Oct2021 at 14:29:29 

     This program is part of the open-source Quantum ESPRESSO suite
     for quantum simulation of materials; please cite
         "P. Giannozzi et al., J. Phys.:Condens. Matter 21 395502 (2009);
         "P. Giannozzi et al., J. Phys.:Condens. Matter 29 465901 (2017);
          URL http://www.quantum-espresso.org", 
     in publications or presentations arising from this work. More details at
     http://www.quantum-espresso.org/quote

     Parallel version (MPI), running on     4 processors

     MPI processes distributed on     1 nodes
     R & G space division:  proc/nbgrp/npool/nimage =       4
     Reading input from headeradd_supercell-00003.in

     Current dimensions of program PWSCF are:
     Max number of different atomic species (ntypx) = 10
     Max number of k-points (npk) =  40000
     Max angular momentum in pseudopotentials (lmaxx) =  3
     Message from routine iosys:
     minimal I/O required, wf_collect reset to FALSE
               file Si.pbe-n-kjpaw_psl.0.1.UPF: wavefunction(s)  3S renormalized

     Subspace diagonalization in iterative solution of the eigenvalue problem:
     a serial algorithm will be used


     Parallelization info
     --------------------
     sticks:   dense  smooth     PW     G-vecs:    dense   smooth      PW
     Min        2372    2372    612               174341   174341   22844
     Max        2374    2374    613               174344   174344   22847
     Sum        9493    9493   2449               697371   697371   91383



     bravais-lattice index     =            0
     lattice parameter (alat)  =      20.6591  a.u.
     unit-cell volume          =    8817.2783 (a.u.)^3
     number of atoms/cell      =           64
     number of atomic types    =            1
     number of electrons       =       256.00
     number of Kohn-Sham states=          128
     kinetic-energy cutoff     =      70.0000  Ry
     charge density cutoff     =     280.0000  Ry
     convergence threshold     =      1.0E-09
     mixing beta               =       0.7000
     number of iterations used =            8  plain     mixing
     Exchange-correlation      =  SLA  PW   PBX  PBC ( 1  4  3  4 0 0)

     celldm(1)=  20.659106  celldm(2)=   0.000000  celldm(3)=   0.000000
     celldm(4)=   0.000000  celldm(5)=   0.000000  celldm(6)=   0.000000

     crystal axes: (cart. coord. in units of alat)
               a(1) = (   1.000000   0.000000   0.000000 )  
               a(2) = (   0.000000   1.000000   0.000000 )  
               a(3) = (   0.000000   0.000000   1.000000 )  

     reciprocal axes: (cart. coord. in units 2 pi/alat)
               b(1) = (  1.000000  0.000000  0.000000 )  
               b(2) = (  0.000000  1.000000  0.000000 )  
               b(3) = (  0.000000  0.000000  1.000000 )  


     PseudoPot. # 1 for Si read from file:
     /home/uezono/pseudo/Si.pbe-n-kjpaw_psl.0.1.UPF
     MD5 check sum: 0810ef13ebffcf5dbabd57b297315270
     Pseudo is Projector augmented-wave + core cor, Zval =  4.0
     Generated using "atomic" code by A. Dal Corso  v.5.0.2 svn rev. 9415
     Shape of augmentation charge: PSQ
     Using radial grid of 1141 points,  4 beta functions with: 
                l(1) =   0
                l(2) =   0
                l(3) =   1
                l(4) =   1
     Q(r) pseudized with 0 coefficients 


     atomic species   valence    mass     pseudopotential
        Si             4.00    28.08550     Si( 1.00)

     No symmetry found



   Cartesian axes

     site n.     atom                  positions (alat units)
         1           Si  tau(   1) = (   0.4383506   0.4354464   0.4375000  )
         2           Si  tau(   2) = (   0.9375000   0.4375000   0.4375000  )
         3           Si  tau(   3) = (   0.4375000   0.9375000   0.4375000  )
         4           Si  tau(   4) = (   0.9375000   0.9375000   0.4375000  )
         5           Si  tau(   5) = (   0.4375000   0.4375000   0.9375000  )
         6           Si  tau(   6) = (   0.9375000   0.4375000   0.9375000  )
         7           Si  tau(   7) = (   0.4375000   0.9375000   0.9375000  )
         8           Si  tau(   8) = (   0.9375000   0.9375000   0.9375000  )
         9           Si  tau(   9) = (   0.4375000   0.1875000   0.1875000  )
        10           Si  tau(  10) = (   0.9375000   0.1875000   0.1875000  )
        11           Si  tau(  11) = (   0.4375000   0.6875000   0.1875000  )
        12           Si  tau(  12) = (   0.9375000   0.6875000   0.1875000  )
        13           Si  tau(  13) = (   0.4375000   0.1875000   0.6875000  )
        14           Si  tau(  14) = (   0.9375000   0.1875000   0.6875000  )
        15           Si  tau(  15) = (   0.4375000   0.6875000   0.6875000  )
        16           Si  tau(  16) = (   0.9375000   0.6875000   0.6875000  )
        17           Si  tau(  17) = (   0.1875000   0.4375000   0.1875000  )
        18           Si  tau(  18) = (   0.6875000   0.4375000   0.1875000  )
        19           Si  tau(  19) = (   0.1875000   0.9375000   0.1875000  )
        20           Si  tau(  20) = (   0.6875000   0.9375000   0.1875000  )
        21           Si  tau(  21) = (   0.1875000   0.4375000   0.6875000  )
        22           Si  tau(  22) = (   0.6875000   0.4375000   0.6875000  )
        23           Si  tau(  23) = (   0.1875000   0.9375000   0.6875000  )
        24           Si  tau(  24) = (   0.6875000   0.9375000   0.6875000  )
        25           Si  tau(  25) = (   0.1875000   0.1875000   0.4375000  )
        26           Si  tau(  26) = (   0.6875000   0.1875000   0.4375000  )
        27           Si  tau(  27) = (   0.1875000   0.6875000   0.4375000  )
        28           Si  tau(  28) = (   0.6875000   0.6875000   0.4375000  )
        29           Si  tau(  29) = (   0.1875000   0.1875000   0.9375000  )
        30           Si  tau(  30) = (   0.6875000   0.1875000   0.9375000  )
        31           Si  tau(  31) = (   0.1875000   0.6875000   0.9375000  )
        32           Si  tau(  32) = (   0.6875000   0.6875000   0.9375000  )
        33           Si  tau(  33) = (   0.0625000   0.0625000   0.0625000  )
        34           Si  tau(  34) = (   0.5625000   0.0625000   0.0625000  )
        35           Si  tau(  35) = (   0.0625000   0.5625000   0.0625000  )
        36           Si  tau(  36) = (   0.5625000   0.5625000   0.0625000  )
        37           Si  tau(  37) = (   0.0625000   0.0625000   0.5625000  )
        38           Si  tau(  38) = (   0.5625000   0.0625000   0.5625000  )
        39           Si  tau(  39) = (   0.0625000   0.5625000   0.5625000  )
        40           Si  tau(  40) = (   0.5625000   0.5625000   0.5625000  )
        41           Si  tau(  41) = (   0.0625000   0.3125000   0.3125000  )
        42           Si  tau(  42) = (   0.5625000   0.3125000   0.3125000  )
        43           Si  tau(  43) = (   0.0625000   0.8125000   0.3125000  )
        44           Si  tau(  44) = (   0.5625000   0.8125000   0.3125000  )
        45           Si  tau(  45) = (   0.0625000   0.3125000   0.8125000  )
        46           Si  tau(  46) = (   0.5625000   0.3125000   0.8125000  )
        47           Si  tau(  47) = (   0.0625000   0.8125000   0.8125000  )
        48           Si  tau(  48) = (   0.5625000   0.8125000   0.8125000  )
        49           Si  tau(  49) = (   0.3125000   0.0625000   0.3125000  )
        50           Si  tau(  50) = (   0.8125000   0.0625000   0.3125000  )
        51           Si  tau(  51) = (   0.3125000   0.5625000   0.3125000  )
        52           Si  tau(  52) = (   0.8125000   0.5625000   0.3125000  )
        53           Si  tau(  53) = (   0.3125000   0.0625000   0.8125000  )
        54           Si  tau(  54) = (   0.8125000   0.0625000   0.8125000  )
        55           Si  tau(  55) = (   0.3125000   0.5625000   0.8125000  )
        56           Si  tau(  56) = (   0.8125000   0.5625000   0.8125000  )
        57           Si  tau(  57) = (   0.3125000   0.3125000   0.0625000  )
        58           Si  tau(  58) = (   0.8125000   0.3125000   0.0625000  )
        59           Si  tau(  59) = (   0.3125000   0.8125000   0.0625000  )
        60           Si  tau(  60) = (   0.8125000   0.8125000   0.0625000  )
        61           Si  tau(  61) = (   0.3125000   0.3125000   0.5625000  )
        62           Si  tau(  62) = (   0.8125000   0.3125000   0.5625000  )
        63           Si  tau(  63) = (   0.3125000   0.8125000   0.5625000  )
        64           Si  tau(  64) = (   0.8125000   0.8125000   0.5625000  )

     number of k points=     4
                       cart. coord. in units 2pi/alat
        k(    1) = (   0.2500000   0.2500000   0.2500000), wk =   0.5000000
        k(    2) = (  -0.2500000  -0.2500000   0.2500000), wk =   0.5000000
        k(    3) = (  -0.2500000   0.2500000  -0.2500000), wk =   0.5000000
        k(    4) = (   0.2500000  -0.2500000  -0.2500000), wk =   0.5000000

     Dense  grid:   697371 G-vectors     FFT dimensions: ( 120, 120, 120)

     Estimated max dynamical RAM per process >       1.08 GB

     Estimated total dynamical RAM >       4.33 GB

     Initial potential from superposition of free atoms

     starting charge  255.96421, renormalised to  256.00000
     Starting wfc are  256 randomized atomic wfcs
     Checking if some PAW data can be deallocated... 

     total cpu time spent up to now is       41.1 secs

     Self-consistent Calculation

     iteration #  1     ecut=    70.00 Ry     beta= 0.70
     Davidson diagonalization with overlap
     ethr =  1.00E-02,  avg # of iterations =  2.0

     Threshold (ethr) on eigenvalues was too large:
     Diagonalizing with lowered threshold

     Davidson diagonalization with overlap
     ethr =  6.98E-04,  avg # of iterations =  1.0

     total cpu time spent up to now is      155.7 secs

     total energy              =   -2990.46316539 Ry
     Harris-Foulkes estimate   =   -2990.88111425 Ry
     estimated scf accuracy    <       1.76658244 Ry

     iteration #  2     ecut=    70.00 Ry     beta= 0.70
     Davidson diagonalization with overlap
     ethr =  6.90E-04,  avg # of iterations =  1.0

     total cpu time spent up to now is      204.4 secs

     total energy              =   -2990.52696226 Ry
     Harris-Foulkes estimate   =   -2990.53126052 Ry
     estimated scf accuracy    <       0.07824188 Ry

     iteration #  3     ecut=    70.00 Ry     beta= 0.70
     Davidson diagonalization with overlap
     ethr =  3.06E-05,  avg # of iterations =  3.0

     total cpu time spent up to now is      262.1 secs

     total energy              =   -2990.53567248 Ry
     Harris-Foulkes estimate   =   -2990.53631403 Ry
     estimated scf accuracy    <       0.00175973 Ry

     iteration #  4     ecut=    70.00 Ry     beta= 0.70
     Davidson diagonalization with overlap
     ethr =  6.87E-07,  avg # of iterations =  3.0

     total cpu time spent up to now is      343.5 secs

     total energy              =   -2990.53628751 Ry
     Harris-Foulkes estimate   =   -2990.53685684 Ry
     estimated scf accuracy    <       0.00164088 Ry

     iteration #  5     ecut=    70.00 Ry     beta= 0.70
     Davidson diagonalization with overlap
     ethr =  6.41E-07,  avg # of iterations =  2.0

     total cpu time spent up to now is      403.0 secs

     total energy              =   -2990.53656473 Ry
     Harris-Foulkes estimate   =   -2990.53662304 Ry
     estimated scf accuracy    <       0.00017131 Ry

     iteration #  6     ecut=    70.00 Ry     beta= 0.70
     Davidson diagonalization with overlap
     ethr =  6.69E-08,  avg # of iterations =  3.0

     total cpu time spent up to now is      467.5 secs

     total energy              =   -2990.53659125 Ry
     Harris-Foulkes estimate   =   -2990.53660943 Ry
     estimated scf accuracy    <       0.00004993 Ry

     iteration #  7     ecut=    70.00 Ry     beta= 0.70
     Davidson diagonalization with overlap
     ethr =  1.95E-08,  avg # of iterations =  2.0

     total cpu time spent up to now is      528.0 secs

     total energy              =   -2990.53660026 Ry
     Harris-Foulkes estimate   =   -2990.53660066 Ry
     estimated scf accuracy    <       0.00000073 Ry

     iteration #  8     ecut=    70.00 Ry     beta= 0.70
     Davidson diagonalization with overlap
     ethr =  2.84E-10,  avg # of iterations =  4.0

     total cpu time spent up to now is      617.3 secs

     total energy              =   -2990.53660097 Ry
     Harris-Foulkes estimate   =   -2990.53660120 Ry
     estimated scf accuracy    <       0.00000040 Ry

     iteration #  9     ecut=    70.00 Ry     beta= 0.70
     Davidson diagonalization with overlap
     ethr =  1.56E-10,  avg # of iterations =  2.8

     total cpu time spent up to now is      677.4 secs

     total energy              =   -2990.53660090 Ry
     Harris-Foulkes estimate   =   -2990.53660104 Ry
     estimated scf accuracy    <       0.00000014 Ry

     iteration # 10     ecut=    70.00 Ry     beta= 0.70
     Davidson diagonalization with overlap
     ethr =  5.49E-11,  avg # of iterations =  2.0

     total cpu time spent up to now is      737.0 secs

     total energy              =   -2990.53660087 Ry
     Harris-Foulkes estimate   =   -2990.53660092 Ry
     estimated scf accuracy    <       0.00000002 Ry

     iteration # 11     ecut=    70.00 Ry     beta= 0.70
     Davidson diagonalization with overlap
     ethr =  6.73E-12,  avg # of iterations =  3.0

     total cpu time spent up to now is      804.9 secs

     total energy              =   -2990.53660087 Ry
     Harris-Foulkes estimate   =   -2990.53660087 Ry
     estimated scf accuracy    <          3.5E-09 Ry

     iteration # 12     ecut=    70.00 Ry     beta= 0.70
     Davidson diagonalization with overlap
     ethr =  1.37E-12,  avg # of iterations =  3.0

     total cpu time spent up to now is      875.1 secs

     total energy              =   -2990.53660087 Ry
     Harris-Foulkes estimate   =   -2990.53660087 Ry
     estimated scf accuracy    <          1.0E-09 Ry

     iteration # 13     ecut=    70.00 Ry     beta= 0.70
     Davidson diagonalization with overlap
     ethr =  4.07E-13,  avg # of iterations =  3.0

     total cpu time spent up to now is      941.5 secs

     End of self-consistent calculation

          k = 0.2500 0.2500 0.2500 ( 87251 PWs)   bands (ev):

    -5.6249  -5.0981  -5.0965  -5.0939  -4.5985  -4.5970  -4.5943  -4.1631
    -4.0654  -4.0637  -4.0610  -3.6512  -3.6482  -3.6471  -3.6469  -3.6467
    -3.6409  -3.4566  -3.4553  -3.4519  -2.9612  -2.9590  -2.9564  -2.5913
    -2.5898  -2.5862  -2.4249  -2.4221  -2.4210  -2.4209  -2.4205  -2.4148
    -0.8831  -0.8798  -0.8782  -0.8781  -0.8778  -0.8722  -0.7830  -0.7813
    -0.7774  -0.6655  -0.6629  -0.6597  -0.5770  -0.5759  -0.5730   0.1271
     0.2052   0.2084   0.2105   0.2109   0.2110   0.2166   1.0839   1.0853
     1.0885   1.4166   1.4178   1.4207   2.0268   2.0276   2.0291   2.0294
     2.0306   2.0318   2.0869   2.0873   2.0896   2.6395   2.6403   2.6421
     2.7396   2.7409   2.7432   2.7435   2.7450   2.7458   2.7938   2.7954
     2.7983   3.1043   3.1063   3.1073   3.1077   3.1085   3.1116   3.3701
     3.3720   3.3729   3.3841   3.3852   3.3881   3.7338   3.7348   3.7374
     3.7554   3.7564   3.7591   3.8373   3.8394   3.8411   4.1123   4.1132
     4.1141   4.1143   4.1162   4.1189   4.1510   4.1533   4.1555   4.4138
     4.4685   4.4707   4.4720   4.7118   4.7144   4.7159   4.7784   4.7789
     4.7818   4.9336   4.9381   5.2399   5.2432   5.2454   5.7208   5.7258

          k =-0.2500-0.2500 0.2500 ( 87251 PWs)   bands (ev):

    -5.6249  -5.0986  -5.0958  -5.0943  -4.5989  -4.5961  -4.5947  -4.1626
    -4.0656  -4.0628  -4.0612  -3.6531  -3.6471  -3.6469  -3.6467  -3.6456
    -3.6428  -3.4576  -3.4542  -3.4529  -2.9606  -2.9579  -2.9558  -2.5922
    -2.5885  -2.5870  -2.4266  -2.4211  -2.4207  -2.4206  -2.4194  -2.4166
    -0.8844  -0.8782  -0.8780  -0.8778  -0.8763  -0.8734  -0.7833  -0.7795
    -0.7778  -0.6649  -0.6619  -0.6590  -0.5793  -0.5765  -0.5754   0.1256
     0.2049   0.2104   0.2105   0.2110   0.2131   0.2163   1.0823   1.0855
     1.0868   1.4160   1.4189   1.4201   2.0265   2.0279   2.0292   2.0295
     2.0308   2.0316   2.0868   2.0890   2.0894   2.6383   2.6402   2.6409
     2.7406   2.7415   2.7432   2.7435   2.7455   2.7468   2.7943   2.7971
     2.7989   3.1035   3.1067   3.1075   3.1079   3.1088   3.1109   3.3709
     3.3721   3.3735   3.3838   3.3869   3.3881   3.7324   3.7351   3.7361
     3.7534   3.7563   3.7572   3.8380   3.8395   3.8417   4.1094   4.1124
     4.1143   4.1145   4.1154   4.1162   4.1519   4.1535   4.1561   4.4121
     4.4700   4.4710   4.4732   4.7129   4.7145   4.7171   4.7759   4.7784
     4.7789   4.9342   4.9386   5.2415   5.2434   5.2470   5.7218   5.7268

          k =-0.2500 0.2500-0.2500 ( 87251 PWs)   bands (ev):

    -5.6249  -5.0975  -5.0965  -5.0944  -4.5980  -4.5969  -4.5950  -4.1634
    -4.0648  -4.0636  -4.0618  -3.6499  -3.6476  -3.6474  -3.6468  -3.6467
    -3.6419  -3.4562  -3.4551  -3.4520  -2.9615  -2.9590  -2.9577  -2.5907
    -2.5895  -2.5867  -2.4240  -2.4215  -2.4213  -2.4207  -2.4205  -2.4158
    -0.8823  -0.8792  -0.8785  -0.8780  -0.8778  -0.8742  -0.7826  -0.7812
    -0.7786  -0.6655  -0.6629  -0.6613  -0.5771  -0.5763  -0.5687   0.1282
     0.2055   0.2087   0.2103   0.2108   0.2110   0.2136   1.0840   1.0854
     1.0904   1.4167   1.4180   1.4202   2.0266   2.0279   2.0291   2.0297
     2.0302   2.0316   2.0860   2.0874   2.0893   2.6402   2.6407   2.6426
     2.7395   2.7399   2.7433   2.7435   2.7444   2.7452   2.7937   2.7950
     2.7967   3.1054   3.1066   3.1071   3.1074   3.1086   3.1110   3.3701
     3.3718   3.3721   3.3840   3.3852   3.3870   3.7344   3.7353   3.7375
     3.7561   3.7570   3.7610   3.8374   3.8392   3.8401   4.1134   4.1139
     4.1141   4.1145   4.1163   4.1218   4.1511   4.1531   4.1542   4.4151
     4.4681   4.4705   4.4706   4.7117   4.7141   4.7146   4.7787   4.7791
     4.7856   4.9339   4.9370   5.2396   5.2430   5.2434   5.7209   5.7243

          k = 0.2500-0.2500-0.2500 ( 87251 PWs)   bands (ev):

    -5.6249  -5.0980  -5.0959  -5.0949  -4.5983  -4.5962  -4.5953  -4.1624
    -4.0647  -4.0629  -4.0616  -3.6522  -3.6471  -3.6470  -3.6465  -3.6462
    -3.6441  -3.4575  -3.4545  -3.4534  -2.9592  -2.9579  -2.9555  -2.5917
    -2.5887  -2.5876  -2.4257  -2.4211  -2.4209  -2.4203  -2.4200  -2.4176
    -0.8821  -0.8783  -0.8781  -0.8776  -0.8769  -0.8742  -0.7821  -0.7796
    -0.7782  -0.6635  -0.6619  -0.6590  -0.5834  -0.5762  -0.5754   0.1245
     0.2079   0.2105   0.2106   0.2111   0.2128   0.2161   1.0803   1.0854
     1.0867   1.4164   1.4187   1.4200   2.0268   2.0284   2.0289   2.0294
     2.0306   2.0318   2.0871   2.0887   2.0902   2.6378   2.6397   2.6402
     2.7414   2.7423   2.7432   2.7434   2.7465   2.7470   2.7957   2.7974
     2.7991   3.1042   3.1066   3.1078   3.1080   3.1086   3.1099   3.3719
     3.3723   3.3735   3.3849   3.3869   3.3881   3.7314   3.7345   3.7355
     3.7524   3.7556   3.7565   3.8390   3.8397   3.8415   4.1069   4.1122
     4.1141   4.1144   4.1147   4.1152   4.1529   4.1537   4.1558   4.4110
     4.4711   4.4714   4.4736   4.7143   4.7148   4.7173   4.7723   4.7781
     4.7786   4.9352   4.9382   5.2434   5.2437   5.2473   5.7232   5.7268

     highest occupied level (ev):     5.7268

!    total energy              =   -2990.53660088 Ry
     Harris-Foulkes estimate   =   -2990.53660088 Ry
     estimated scf accuracy    <          3.5E-10 Ry

     total all-electron energy =    -37124.672154 Ry

     The total energy is the sum of the following terms:

     one-electron contribution =     178.60687531 Ry
     hartree contribution      =      35.70048101 Ry
     xc contribution           =    -391.44038415 Ry
     ewald contribution        =    -534.00867027 Ry
     one-center paw contrib.   =   -2279.39490278 Ry

     convergence has been achieved in  13 iterations

     Forces acting on atoms (cartesian axes, Ry/au):

     atom    1 type  1   force =    -0.00465861    0.01123005    0.00025123
     atom    2 type  1   force =     0.00000621   -0.00003846    0.00000014
     atom    3 type  1   force =     0.00001600   -0.00001528   -0.00000015
     atom    4 type  1   force =    -0.00000200    0.00000460   -0.00000047
     atom    5 type  1   force =     0.00001660   -0.00003856   -0.00000010
     atom    6 type  1   force =    -0.00000239    0.00033543   -0.00000025
     atom    7 type  1   force =    -0.00013906    0.00000451    0.00000004
     atom    8 type  1   force =     0.00000704   -0.00001685   -0.00000054
     atom    9 type  1   force =    -0.00007411   -0.00013530   -0.00013053
     atom   10 type  1   force =     0.00000677   -0.00002732    0.00005700
     atom   11 type  1   force =    -0.00007517   -0.00013091    0.00012874
     atom   12 type  1   force =     0.00000602   -0.00002702   -0.00005673
     atom   13 type  1   force =    -0.00023383   -0.00019968    0.00019712
     atom   14 type  1   force =    -0.00000703   -0.00003293   -0.00005087
     atom   15 type  1   force =    -0.00023194   -0.00019757   -0.00019303
     atom   16 type  1   force =    -0.00000689   -0.00003251    0.00005127
     atom   17 type  1   force =    -0.00000928    0.00033764   -0.00001041
     atom   18 type  1   force =    -0.00001122    0.00034032    0.00001286
     atom   19 type  1   force =     0.00000644   -0.00000245   -0.00002899
     atom   20 type  1   force =     0.00000511   -0.00000278    0.00002938
     atom   21 type  1   force =     0.00014952    0.00040549   -0.00014665
     atom   22 type  1   force =     0.00014588    0.00040389    0.00014639
     atom   23 type  1   force =     0.00001954    0.00000298    0.00001578
     atom   24 type  1   force =     0.00001896    0.00000268   -0.00001552
     atom   25 type  1   force =    -0.00009333   -0.00009909    0.00004737
     atom   26 type  1   force =     0.00023418   -0.00023701   -0.00011305
     atom   27 type  1   force =     0.00022814   -0.00022912    0.00011085
     atom   28 type  1   force =    -0.00009384   -0.00009831   -0.00004529
     atom   29 type  1   force =     0.00006697   -0.00005278    0.00000402
     atom   30 type  1   force =    -0.00004207   -0.00000710   -0.00000984
     atom   31 type  1   force =    -0.00004081   -0.00000736    0.00000912
     atom   32 type  1   force =     0.00006587   -0.00005248   -0.00000387
     atom   33 type  1   force =    -0.00002776    0.00002447   -0.00001258
     atom   34 type  1   force =     0.00005377   -0.00001160   -0.00001008
     atom   35 type  1   force =    -0.00001150   -0.00017117   -0.00001223
     atom   36 type  1   force =    -0.00005443    0.00005632   -0.00001528
     atom   37 type  1   force =    -0.00000986   -0.00001218   -0.00001220
     atom   38 type  1   force =    -0.00004478    0.00002020   -0.00001192
     atom   39 type  1   force =    -0.00003057    0.00005302   -0.00002503
     atom   40 type  1   force =    -0.00068398   -0.00198583   -0.00107219
     atom   41 type  1   force =     0.00002403    0.00003091   -0.00004678
     atom   42 type  1   force =     0.00307538   -0.00358292   -0.00272454
     atom   43 type  1   force =     0.00002510   -0.00002530   -0.00002641
     atom   44 type  1   force =     0.00000976   -0.00000193   -0.00004225
     atom   45 type  1   force =     0.00002759   -0.00018861   -0.00002706
     atom   46 type  1   force =     0.00001855    0.00002758   -0.00003794
     atom   47 type  1   force =     0.00001631    0.00000651   -0.00003140
     atom   48 type  1   force =     0.00009328   -0.00002704   -0.00002555
     atom   49 type  1   force =     0.00000960   -0.00000201    0.00004175
     atom   50 type  1   force =     0.00002655   -0.00002784    0.00002869
     atom   51 type  1   force =     0.00286178   -0.00341188    0.00246450
     atom   52 type  1   force =     0.00002218    0.00003131    0.00004766
     atom   53 type  1   force =     0.00009499   -0.00002795    0.00002677
     atom   54 type  1   force =     0.00001510    0.00000641    0.00003081
     atom   55 type  1   force =     0.00001917    0.00002768    0.00003834
     atom   56 type  1   force =     0.00002672   -0.00018746    0.00002720
     atom   57 type  1   force =    -0.00005189    0.00005796    0.00001680
     atom   58 type  1   force =    -0.00001230   -0.00017212    0.00001184
     atom   59 type  1   force =     0.00005635   -0.00001026    0.00000925
     atom   60 type  1   force =    -0.00002914    0.00002434    0.00001341
     atom   61 type  1   force =    -0.00071177   -0.00197079    0.00107355
     atom   62 type  1   force =    -0.00003144    0.00005403    0.00002471
     atom   63 type  1   force =    -0.00004419    0.00002084    0.00001237
     atom   64 type  1   force =    -0.00001027   -0.00001142    0.00001077

     Total force =     0.014706     Total SCF correction =     0.000037


     Computing stress (Cartesian axis) and pressure

          total   stress  (Ry/bohr**3)                   (kbar)     P=    0.10
   0.00000069  -0.00000004  -0.00000168          0.10     -0.01     -0.25
  -0.00000004   0.00000063   0.00000070         -0.01      0.09      0.10
  -0.00000168   0.00000070   0.00000071         -0.25      0.10      0.10


     init_run     :     40.06s CPU     41.01s WALL (       1 calls)
     electrons    :    879.72s CPU    900.37s WALL (       1 calls)
     forces       :     11.66s CPU     11.87s WALL (       1 calls)
     stress       :     56.51s CPU     56.76s WALL (       1 calls)

     Called by init_run:
     wfcinit      :     36.98s CPU     37.82s WALL (       1 calls)
     potinit      :      1.06s CPU      1.09s WALL (       1 calls)

     Called by electrons:
     c_bands      :    731.07s CPU    748.47s WALL (      14 calls)
     sum_band     :    131.98s CPU    134.35s WALL (      14 calls)
     v_of_rho     :      5.42s CPU      5.57s WALL (      14 calls)
     newd         :      2.96s CPU      3.73s WALL (      14 calls)
     PAW_pot      :      8.10s CPU      8.10s WALL (      14 calls)
     mix_rho      :      1.20s CPU      1.25s WALL (      14 calls)

     Called by c_bands:
     init_us_2    :      7.84s CPU      7.88s WALL (     124 calls)
     cegterg      :    716.28s CPU    733.64s WALL (      56 calls)

     Called by sum_band:
     sum_band:bec :      0.01s CPU      0.02s WALL (      56 calls)
     addusdens    :      3.52s CPU      4.34s WALL (      14 calls)

     Called by *egterg:
     h_psi        :    636.30s CPU    647.40s WALL (     199 calls)
     s_psi        :     36.73s CPU     36.73s WALL (     199 calls)
     g_psi        :      1.27s CPU      1.28s WALL (     139 calls)
     cdiaghg      :      4.63s CPU      4.62s WALL (     191 calls)

     Called by h_psi:
     h_psi:pot    :    632.22s CPU    643.26s WALL (     199 calls)
     h_psi:calbec :     36.61s CPU     36.63s WALL (     199 calls)
     vloc_psi     :    559.04s CPU    570.03s WALL (     199 calls)
     add_vuspsi   :     36.57s CPU     36.59s WALL (     199 calls)

     General routines
     calbec       :     53.78s CPU     53.83s WALL (     275 calls)
     fft          :      4.55s CPU      4.81s WALL (     209 calls)
     fftw         :    564.08s CPU    576.57s WALL (   49048 calls)

     Parallel routines
     fft_scatt_xy :     95.40s CPU     95.28s WALL (   49257 calls)
     fft_scatt_yz :    104.69s CPU    110.96s WALL (   49257 calls)

     PWSCF        : 16m28.06s CPU    16m50.13s WALL


   This run was terminated on:  14:46:19  24Oct2021            

=------------------------------------------------------------------------------=
   JOB DONE.
=------------------------------------------------------------------------------=
Note: The following floating-point exceptions are signalling: IEEE_UNDERFLOW_FLAG IEEE_DENORMAL
