
     Program PWSCF v.6.2 (svn rev. 13949:13950) starts on 24Oct2021 at 18: 3:24 

     This program is part of the open-source Quantum ESPRESSO suite
     for quantum simulation of materials; please cite
         "P. Giannozzi et al., J. Phys.:Condens. Matter 21 395502 (2009);
         "P. Giannozzi et al., J. Phys.:Condens. Matter 29 465901 (2017);
          URL http://www.quantum-espresso.org", 
     in publications or presentations arising from this work. More details at
     http://www.quantum-espresso.org/quote

     Parallel version (MPI), running on     4 processors

     MPI processes distributed on     1 nodes
     R & G space division:  proc/nbgrp/npool/nimage =       4
     Reading input from headeradd_supercell-00016.in

     Current dimensions of program PWSCF are:
     Max number of different atomic species (ntypx) = 10
     Max number of k-points (npk) =  40000
     Max angular momentum in pseudopotentials (lmaxx) =  3
     Message from routine iosys:
     minimal I/O required, wf_collect reset to FALSE
               file Si.pbe-n-kjpaw_psl.0.1.UPF: wavefunction(s)  3S renormalized

     Subspace diagonalization in iterative solution of the eigenvalue problem:
     a serial algorithm will be used


     Parallelization info
     --------------------
     sticks:   dense  smooth     PW     G-vecs:    dense   smooth      PW
     Min        2372    2372    612               174341   174341   22844
     Max        2374    2374    613               174344   174344   22847
     Sum        9493    9493   2449               697371   697371   91383



     bravais-lattice index     =            0
     lattice parameter (alat)  =      20.6591  a.u.
     unit-cell volume          =    8817.2783 (a.u.)^3
     number of atoms/cell      =           64
     number of atomic types    =            1
     number of electrons       =       256.00
     number of Kohn-Sham states=          128
     kinetic-energy cutoff     =      70.0000  Ry
     charge density cutoff     =     280.0000  Ry
     convergence threshold     =      1.0E-09
     mixing beta               =       0.7000
     number of iterations used =            8  plain     mixing
     Exchange-correlation      =  SLA  PW   PBX  PBC ( 1  4  3  4 0 0)

     celldm(1)=  20.659106  celldm(2)=   0.000000  celldm(3)=   0.000000
     celldm(4)=   0.000000  celldm(5)=   0.000000  celldm(6)=   0.000000

     crystal axes: (cart. coord. in units of alat)
               a(1) = (   1.000000   0.000000   0.000000 )  
               a(2) = (   0.000000   1.000000   0.000000 )  
               a(3) = (   0.000000   0.000000   1.000000 )  

     reciprocal axes: (cart. coord. in units 2 pi/alat)
               b(1) = (  1.000000  0.000000  0.000000 )  
               b(2) = (  0.000000  1.000000  0.000000 )  
               b(3) = (  0.000000  0.000000  1.000000 )  


     PseudoPot. # 1 for Si read from file:
     /home/uezono/pseudo/Si.pbe-n-kjpaw_psl.0.1.UPF
     MD5 check sum: 0810ef13ebffcf5dbabd57b297315270
     Pseudo is Projector augmented-wave + core cor, Zval =  4.0
     Generated using "atomic" code by A. Dal Corso  v.5.0.2 svn rev. 9415
     Shape of augmentation charge: PSQ
     Using radial grid of 1141 points,  4 beta functions with: 
                l(1) =   0
                l(2) =   0
                l(3) =   1
                l(4) =   1
     Q(r) pseudized with 0 coefficients 


     atomic species   valence    mass     pseudopotential
        Si             4.00    28.08550     Si( 1.00)

     No symmetry found



   Cartesian axes

     site n.     atom                  positions (alat units)
         1           Si  tau(   1) = (   0.4404043   0.4375000   0.4375000  )
         2           Si  tau(   2) = (   0.9375000   0.4375000   0.4375000  )
         3           Si  tau(   3) = (   0.4375000   0.9375000   0.4375000  )
         4           Si  tau(   4) = (   0.9375000   0.9375000   0.4375000  )
         5           Si  tau(   5) = (   0.4375000   0.4375000   0.9375000  )
         6           Si  tau(   6) = (   0.9375000   0.4375000   0.9375000  )
         7           Si  tau(   7) = (   0.4375000   0.9375000   0.9375000  )
         8           Si  tau(   8) = (   0.9375000   0.9375000   0.9375000  )
         9           Si  tau(   9) = (   0.4375000   0.1904043   0.1875000  )
        10           Si  tau(  10) = (   0.9375000   0.1875000   0.1875000  )
        11           Si  tau(  11) = (   0.4375000   0.6875000   0.1875000  )
        12           Si  tau(  12) = (   0.9375000   0.6875000   0.1875000  )
        13           Si  tau(  13) = (   0.4375000   0.1875000   0.6875000  )
        14           Si  tau(  14) = (   0.9375000   0.1875000   0.6875000  )
        15           Si  tau(  15) = (   0.4375000   0.6875000   0.6875000  )
        16           Si  tau(  16) = (   0.9375000   0.6875000   0.6875000  )
        17           Si  tau(  17) = (   0.1875000   0.4375000   0.1875000  )
        18           Si  tau(  18) = (   0.6875000   0.4375000   0.1875000  )
        19           Si  tau(  19) = (   0.1875000   0.9375000   0.1875000  )
        20           Si  tau(  20) = (   0.6875000   0.9375000   0.1875000  )
        21           Si  tau(  21) = (   0.1875000   0.4375000   0.6875000  )
        22           Si  tau(  22) = (   0.6875000   0.4375000   0.6875000  )
        23           Si  tau(  23) = (   0.1875000   0.9375000   0.6875000  )
        24           Si  tau(  24) = (   0.6875000   0.9375000   0.6875000  )
        25           Si  tau(  25) = (   0.1875000   0.1875000   0.4375000  )
        26           Si  tau(  26) = (   0.6875000   0.1875000   0.4375000  )
        27           Si  tau(  27) = (   0.1875000   0.6875000   0.4375000  )
        28           Si  tau(  28) = (   0.6875000   0.6875000   0.4375000  )
        29           Si  tau(  29) = (   0.1875000   0.1875000   0.9375000  )
        30           Si  tau(  30) = (   0.6875000   0.1875000   0.9375000  )
        31           Si  tau(  31) = (   0.1875000   0.6875000   0.9375000  )
        32           Si  tau(  32) = (   0.6875000   0.6875000   0.9375000  )
        33           Si  tau(  33) = (   0.0625000   0.0625000   0.0625000  )
        34           Si  tau(  34) = (   0.5625000   0.0625000   0.0625000  )
        35           Si  tau(  35) = (   0.0625000   0.5625000   0.0625000  )
        36           Si  tau(  36) = (   0.5625000   0.5625000   0.0625000  )
        37           Si  tau(  37) = (   0.0625000   0.0625000   0.5625000  )
        38           Si  tau(  38) = (   0.5625000   0.0625000   0.5625000  )
        39           Si  tau(  39) = (   0.0625000   0.5625000   0.5625000  )
        40           Si  tau(  40) = (   0.5625000   0.5625000   0.5625000  )
        41           Si  tau(  41) = (   0.0625000   0.3125000   0.3125000  )
        42           Si  tau(  42) = (   0.5625000   0.3125000   0.3125000  )
        43           Si  tau(  43) = (   0.0625000   0.8125000   0.3125000  )
        44           Si  tau(  44) = (   0.5625000   0.8125000   0.3125000  )
        45           Si  tau(  45) = (   0.0625000   0.3125000   0.8125000  )
        46           Si  tau(  46) = (   0.5625000   0.3125000   0.8125000  )
        47           Si  tau(  47) = (   0.0625000   0.8125000   0.8125000  )
        48           Si  tau(  48) = (   0.5625000   0.8125000   0.8125000  )
        49           Si  tau(  49) = (   0.3125000   0.0625000   0.3125000  )
        50           Si  tau(  50) = (   0.8125000   0.0625000   0.3125000  )
        51           Si  tau(  51) = (   0.3125000   0.5625000   0.3125000  )
        52           Si  tau(  52) = (   0.8125000   0.5625000   0.3125000  )
        53           Si  tau(  53) = (   0.3125000   0.0625000   0.8125000  )
        54           Si  tau(  54) = (   0.8125000   0.0625000   0.8125000  )
        55           Si  tau(  55) = (   0.3125000   0.5625000   0.8125000  )
        56           Si  tau(  56) = (   0.8125000   0.5625000   0.8125000  )
        57           Si  tau(  57) = (   0.3125000   0.3125000   0.0625000  )
        58           Si  tau(  58) = (   0.8125000   0.3125000   0.0625000  )
        59           Si  tau(  59) = (   0.3125000   0.8125000   0.0625000  )
        60           Si  tau(  60) = (   0.8125000   0.8125000   0.0625000  )
        61           Si  tau(  61) = (   0.3125000   0.3125000   0.5625000  )
        62           Si  tau(  62) = (   0.8125000   0.3125000   0.5625000  )
        63           Si  tau(  63) = (   0.3125000   0.8125000   0.5625000  )
        64           Si  tau(  64) = (   0.8125000   0.8125000   0.5625000  )

     number of k points=     4
                       cart. coord. in units 2pi/alat
        k(    1) = (   0.2500000   0.2500000   0.2500000), wk =   0.5000000
        k(    2) = (  -0.2500000  -0.2500000   0.2500000), wk =   0.5000000
        k(    3) = (  -0.2500000   0.2500000  -0.2500000), wk =   0.5000000
        k(    4) = (   0.2500000  -0.2500000  -0.2500000), wk =   0.5000000

     Dense  grid:   697371 G-vectors     FFT dimensions: ( 120, 120, 120)

     Estimated max dynamical RAM per process >       1.08 GB

     Estimated total dynamical RAM >       4.33 GB

     Initial potential from superposition of free atoms

     starting charge  255.96421, renormalised to  256.00000
     Starting wfc are  256 randomized atomic wfcs
     Checking if some PAW data can be deallocated... 

     total cpu time spent up to now is       41.1 secs

     Self-consistent Calculation

     iteration #  1     ecut=    70.00 Ry     beta= 0.70
     Davidson diagonalization with overlap
     ethr =  1.00E-02,  avg # of iterations =  2.0

     Threshold (ethr) on eigenvalues was too large:
     Diagonalizing with lowered threshold

     Davidson diagonalization with overlap
     ethr =  6.98E-04,  avg # of iterations =  1.0

     total cpu time spent up to now is      155.6 secs

     total energy              =   -2990.46248176 Ry
     Harris-Foulkes estimate   =   -2990.88045967 Ry
     estimated scf accuracy    <       1.76653149 Ry

     iteration #  2     ecut=    70.00 Ry     beta= 0.70
     Davidson diagonalization with overlap
     ethr =  6.90E-04,  avg # of iterations =  1.0

     total cpu time spent up to now is      204.3 secs

     total energy              =   -2990.52628885 Ry
     Harris-Foulkes estimate   =   -2990.53060091 Ry
     estimated scf accuracy    <       0.07826648 Ry

     iteration #  3     ecut=    70.00 Ry     beta= 0.70
     Davidson diagonalization with overlap
     ethr =  3.06E-05,  avg # of iterations =  2.2

     total cpu time spent up to now is      261.5 secs

     total energy              =   -2990.53498032 Ry
     Harris-Foulkes estimate   =   -2990.53565082 Ry
     estimated scf accuracy    <       0.00179123 Ry

     iteration #  4     ecut=    70.00 Ry     beta= 0.70
     Davidson diagonalization with overlap
     ethr =  7.00E-07,  avg # of iterations =  3.5

     total cpu time spent up to now is      343.9 secs

     total energy              =   -2990.53555154 Ry
     Harris-Foulkes estimate   =   -2990.53625807 Ry
     estimated scf accuracy    <       0.00200041 Ry

     iteration #  5     ecut=    70.00 Ry     beta= 0.70
     Davidson diagonalization with overlap
     ethr =  7.00E-07,  avg # of iterations =  3.0

     total cpu time spent up to now is      405.0 secs

     total energy              =   -2990.53589004 Ry
     Harris-Foulkes estimate   =   -2990.53596214 Ry
     estimated scf accuracy    <       0.00020893 Ry

     iteration #  6     ecut=    70.00 Ry     beta= 0.70
     Davidson diagonalization with overlap
     ethr =  8.16E-08,  avg # of iterations =  3.0

     total cpu time spent up to now is      469.0 secs

     total energy              =   -2990.53592309 Ry
     Harris-Foulkes estimate   =   -2990.53594457 Ry
     estimated scf accuracy    <       0.00005948 Ry

     iteration #  7     ecut=    70.00 Ry     beta= 0.70
     Davidson diagonalization with overlap
     ethr =  2.32E-08,  avg # of iterations =  2.0

     total cpu time spent up to now is      529.4 secs

     total energy              =   -2990.53593346 Ry
     Harris-Foulkes estimate   =   -2990.53593406 Ry
     estimated scf accuracy    <       0.00000118 Ry

     iteration #  8     ecut=    70.00 Ry     beta= 0.70
     Davidson diagonalization with overlap
     ethr =  4.62E-10,  avg # of iterations =  3.0

     total cpu time spent up to now is      616.6 secs

     total energy              =   -2990.53593436 Ry
     Harris-Foulkes estimate   =   -2990.53593462 Ry
     estimated scf accuracy    <       0.00000042 Ry

     iteration #  9     ecut=    70.00 Ry     beta= 0.70
     Davidson diagonalization with overlap
     ethr =  1.66E-10,  avg # of iterations =  3.0

     total cpu time spent up to now is      677.6 secs

     total energy              =   -2990.53593431 Ry
     Harris-Foulkes estimate   =   -2990.53593445 Ry
     estimated scf accuracy    <       0.00000019 Ry

     iteration # 10     ecut=    70.00 Ry     beta= 0.70
     Davidson diagonalization with overlap
     ethr =  7.33E-11,  avg # of iterations =  2.0

     total cpu time spent up to now is      736.9 secs

     total energy              =   -2990.53593427 Ry
     Harris-Foulkes estimate   =   -2990.53593434 Ry
     estimated scf accuracy    <       0.00000003 Ry

     iteration # 11     ecut=    70.00 Ry     beta= 0.70
     Davidson diagonalization with overlap
     ethr =  1.01E-11,  avg # of iterations =  3.0

     total cpu time spent up to now is      801.7 secs

     total energy              =   -2990.53593428 Ry
     Harris-Foulkes estimate   =   -2990.53593428 Ry
     estimated scf accuracy    <          3.6E-09 Ry

     iteration # 12     ecut=    70.00 Ry     beta= 0.70
     Davidson diagonalization with overlap
     ethr =  1.41E-12,  avg # of iterations =  3.0

     total cpu time spent up to now is      875.5 secs

     total energy              =   -2990.53593428 Ry
     Harris-Foulkes estimate   =   -2990.53593428 Ry
     estimated scf accuracy    <          1.7E-09 Ry

     iteration # 13     ecut=    70.00 Ry     beta= 0.70
     Davidson diagonalization with overlap
     ethr =  6.50E-13,  avg # of iterations =  3.0

     total cpu time spent up to now is      939.2 secs

     End of self-consistent calculation

          k = 0.2500 0.2500 0.2500 ( 87251 PWs)   bands (ev):

    -5.6250  -5.1011  -5.0947  -5.0937  -4.6011  -4.5950  -4.5940  -4.1621
    -4.0674  -4.0615  -4.0602  -3.6608  -3.6468  -3.6465  -3.6456  -3.6436
    -3.6419  -3.4600  -3.4543  -3.4520  -2.9601  -2.9557  -2.9542  -2.5956
    -2.5876  -2.5857  -2.4322  -2.4216  -2.4204  -2.4192  -2.4173  -2.4155
    -0.8868  -0.8807  -0.8776  -0.8757  -0.8745  -0.8718  -0.7855  -0.7777
    -0.7753  -0.6639  -0.6615  -0.6558  -0.5892  -0.5771  -0.5749   0.1226
     0.2031   0.2091   0.2112   0.2134   0.2166   0.2200   1.0770   1.0840
     1.0878   1.4165   1.4171   1.4214   2.0249   2.0262   2.0281   2.0305
     2.0326   2.0330   2.0872   2.0891   2.0920   2.6353   2.6389   2.6402
     2.7391   2.7403   2.7433   2.7459   2.7483   2.7497   2.7955   2.7996
     2.8013   3.1001   3.1051   3.1077   3.1088   3.1103   3.1123   3.3712
     3.3730   3.3740   3.3857   3.3865   3.3908   3.7273   3.7344   3.7359
     3.7487   3.7547   3.7567   3.8382   3.8413   3.8425   4.1025   4.1075
     4.1115   4.1149   4.1158   4.1167   4.1525   4.1556   4.1573   4.4091
     4.4709   4.4739   4.4750   4.7137   4.7169   4.7187   4.7680   4.7761
     4.7783   4.9350   4.9399   5.2426   5.2466   5.2497   5.7235   5.7292

          k =-0.2500-0.2500 0.2500 ( 87251 PWs)   bands (ev):

    -5.6251  -5.0990  -5.0979  -5.0918  -4.5996  -4.5985  -4.5923  -4.1643
    -4.0664  -4.0653  -4.0593  -3.6528  -3.6501  -3.6498  -3.6468  -3.6420
    -3.6379  -3.4576  -3.4553  -3.4492  -2.9647  -2.9615  -2.9551  -2.5925
    -2.5909  -2.5833  -2.4269  -2.4241  -2.4229  -2.4207  -2.4152  -2.4128
    -0.8860  -0.8825  -0.8815  -0.8780  -0.8737  -0.8710  -0.7856  -0.7830
    -0.7753  -0.6683  -0.6629  -0.6604  -0.5771  -0.5715  -0.5669   0.1300
     0.2016   0.2031   0.2076   0.2109   0.2134   0.2190   1.0831   1.0880
     1.0921   1.4156   1.4179   1.4214   2.0242   2.0275   2.0285   2.0293
     2.0309   2.0336   2.0848   2.0861   2.0904   2.6399   2.6413   2.6449
     2.7343   2.7385   2.7417   2.7435   2.7456   2.7470   2.7912   2.7952
     2.7965   3.1025   3.1046   3.1060   3.1083   3.1114   3.1136   3.3686
     3.3696   3.3724   3.3829   3.3849   3.3880   3.7338   3.7354   3.7402
     3.7563   3.7588   3.7642   3.8345   3.8393   3.8413   4.1115   4.1135
     4.1143   4.1173   4.1202   4.1248   4.1479   4.1533   4.1561   4.4169
     4.4668   4.4679   4.4714   4.7083   4.7136   4.7155   4.7791   4.7837
     4.7884   4.9325   4.9375   5.2353   5.2422   5.2448   5.7188   5.7243

          k =-0.2500 0.2500-0.2500 ( 87251 PWs)   bands (ev):

    -5.6250  -5.1005  -5.0959  -5.0927  -4.6009  -4.5963  -4.5930  -4.1632
    -4.0677  -4.0627  -4.0598  -3.6570  -3.6499  -3.6469  -3.6451  -3.6447
    -3.6388  -3.4589  -3.4548  -3.4505  -2.9638  -2.9576  -2.9543  -2.5930
    -2.5892  -2.5855  -2.4300  -2.4232  -2.4209  -2.4190  -2.4183  -2.4131
    -0.8871  -0.8813  -0.8780  -0.8769  -0.8751  -0.8713  -0.7839  -0.7806
    -0.7769  -0.6672  -0.6623  -0.6570  -0.5836  -0.5757  -0.5688   0.1263
     0.2018   0.2068   0.2098   0.2132   0.2146   0.2183   1.0792   1.0859
     1.0910   1.4137   1.4186   1.4226   2.0238   2.0271   2.0289   2.0295
     2.0315   2.0338   2.0853   2.0885   2.0912   2.6376   2.6402   2.6423
     2.7369   2.7380   2.7430   2.7450   2.7474   2.7480   2.7932   2.7970
     2.7996   3.1004   3.1046   3.1075   3.1089   3.1099   3.1141   3.3693
     3.3712   3.3742   3.3820   3.3867   3.3904   3.7304   3.7346   3.7385
     3.7526   3.7561   3.7611   3.8360   3.8404   3.8423   4.1060   4.1116
     4.1141   4.1149   4.1170   4.1215   4.1498   4.1548   4.1567   4.4132
     4.4676   4.4706   4.4747   4.7104   4.7150   4.7178   4.7728   4.7789
     4.7852   4.9319   4.9405   5.2386   5.2443   5.2478   5.7191   5.7288

          k = 0.2500-0.2500-0.2500 ( 87251 PWs)   bands (ev):

    -5.6250  -5.1000  -5.0967  -5.0923  -4.6004  -4.5971  -4.5929  -4.1632
    -4.0668  -4.0637  -4.0594  -3.6562  -3.6493  -3.6475  -3.6457  -3.6447
    -3.6390  -3.4589  -3.4549  -3.4505  -2.9616  -2.9590  -2.9550  -2.5931
    -2.5890  -2.5857  -2.4301  -2.4233  -2.4214  -2.4194  -2.4177  -2.4126
    -0.8887  -0.8816  -0.8786  -0.8770  -0.8746  -0.8696  -0.7841  -0.7804
    -0.7767  -0.6672  -0.6622  -0.6572  -0.5823  -0.5752  -0.5707   0.1262
     0.2013   0.2076   0.2100   0.2114   0.2146   0.2198   1.0809   1.0857
     1.0894   1.4144   1.4184   1.4222   2.0241   2.0257   2.0295   2.0299
     2.0313   2.0342   2.0854   2.0885   2.0909   2.6378   2.6399   2.6425
     2.7365   2.7393   2.7431   2.7440   2.7464   2.7493   2.7928   2.7960
     2.8009   3.1011   3.1056   3.1068   3.1079   3.1089   3.1152   3.3687
     3.3725   3.3736   3.3822   3.3865   3.3902   3.7304   3.7347   3.7381
     3.7530   3.7571   3.7601   3.8359   3.8397   3.8429   4.1057   4.1125
     4.1137   4.1150   4.1169   4.1215   4.1500   4.1538   4.1576   4.4129
     4.4674   4.4716   4.4741   4.7103   4.7147   4.7182   4.7750   4.7790
     4.7828   4.9319   4.9405   5.2382   5.2438   5.2487   5.7191   5.7289

     highest occupied level (ev):     5.7292

!    total energy              =   -2990.53593429 Ry
     Harris-Foulkes estimate   =   -2990.53593428 Ry
     estimated scf accuracy    <          3.6E-10 Ry

     total all-electron energy =    -37124.671487 Ry

     The total energy is the sum of the following terms:

     one-electron contribution =     178.60401380 Ry
     hartree contribution      =      35.70179576 Ry
     xc contribution           =    -391.44049835 Ry
     ewald contribution        =    -534.00623545 Ry
     one-center paw contrib.   =   -2279.39501005 Ry

     convergence has been achieved in  13 iterations

     Forces acting on atoms (cartesian axes, Ry/au):

     atom    1 type  1   force =    -0.01574762    0.00024109    0.00022926
     atom    2 type  1   force =     0.00003101    0.00004235   -0.00007649
     atom    3 type  1   force =     0.00016436    0.00023161   -0.00022722
     atom    4 type  1   force =     0.00000248    0.00004211    0.00007672
     atom    5 type  1   force =    -0.00005941    0.00023785   -0.00023191
     atom    6 type  1   force =    -0.00001692    0.00004196    0.00007634
     atom    7 type  1   force =    -0.00058483    0.00023109    0.00022652
     atom    8 type  1   force =     0.00001452    0.00004224   -0.00007747
     atom    9 type  1   force =    -0.00052812   -0.01574767    0.00011430
     atom   10 type  1   force =    -0.00000094    0.00006443    0.00000965
     atom   11 type  1   force =    -0.00052306    0.00013118   -0.00010929
     atom   12 type  1   force =    -0.00000056    0.00000193   -0.00000944
     atom   13 type  1   force =    -0.00052348   -0.00005563    0.00010908
     atom   14 type  1   force =    -0.00000021   -0.00048399    0.00001006
     atom   15 type  1   force =    -0.00052775   -0.00012041   -0.00011378
     atom   16 type  1   force =    -0.00000139    0.00001434   -0.00000916
     atom   17 type  1   force =    -0.00000156    0.00012734    0.00011291
     atom   18 type  1   force =     0.00047315    0.00012380   -0.00012217
     atom   19 type  1   force =     0.00026930    0.00022175   -0.00018574
     atom   20 type  1   force =    -0.00018510    0.00022188    0.00018722
     atom   21 type  1   force =     0.00030667    0.00015227   -0.00023653
     atom   22 type  1   force =     0.00016273    0.00015692    0.00024249
     atom   23 type  1   force =    -0.00003483    0.00005175    0.00006759
     atom   24 type  1   force =     0.00011907    0.00005147   -0.00006682
     atom   25 type  1   force =     0.00012200   -0.00029639   -0.00000100
     atom   26 type  1   force =     0.00012396   -0.00076186   -0.00022952
     atom   27 type  1   force =     0.00022121   -0.00022732    0.00011923
     atom   28 type  1   force =     0.00022828    0.00023146    0.00010456
     atom   29 type  1   force =     0.00015617   -0.00060535    0.00010494
     atom   30 type  1   force =     0.00015186   -0.00044606   -0.00011884
     atom   31 type  1   force =     0.00005158    0.00007625    0.00001879
     atom   32 type  1   force =     0.00005254   -0.00007632   -0.00000019
     atom   33 type  1   force =    -0.00005895   -0.00002755    0.00008295
     atom   34 type  1   force =    -0.00222725    0.00383796    0.00251218
     atom   35 type  1   force =    -0.00000153    0.00005425    0.00005387
     atom   36 type  1   force =    -0.00009837    0.00003676    0.00007715
     atom   37 type  1   force =    -0.00000237    0.00027705    0.00005427
     atom   38 type  1   force =    -0.00011208   -0.00002047    0.00008723
     atom   39 type  1   force =    -0.00004466    0.00001606    0.00006895
     atom   40 type  1   force =     0.00390010    0.00273102    0.00272935
     atom   41 type  1   force =     0.00002535   -0.00009888    0.00001161
     atom   42 type  1   force =     0.00663004    0.00121964    0.00000441
     atom   43 type  1   force =     0.00005069    0.00000090   -0.00000023
     atom   44 type  1   force =    -0.00002232   -0.00005217   -0.00001180
     atom   45 type  1   force =     0.00005309    0.00022939    0.00000326
     atom   46 type  1   force =    -0.00000983   -0.00011061    0.00000038
     atom   47 type  1   force =     0.00000914   -0.00005287   -0.00000005
     atom   48 type  1   force =     0.00028261   -0.00000219   -0.00000383
     atom   49 type  1   force =     0.00242266    0.00377338   -0.00243100
     atom   50 type  1   force =     0.00006510   -0.00008491   -0.00002180
     atom   51 type  1   force =     0.00384859   -0.00249523    0.00244324
     atom   52 type  1   force =     0.00001315   -0.00001088    0.00000922
     atom   53 type  1   force =     0.00030371   -0.00008730   -0.00000980
     atom   54 type  1   force =     0.00000561    0.00022088    0.00000322
     atom   55 type  1   force =    -0.00003003   -0.00002334    0.00001146
     atom   56 type  1   force =     0.00005867   -0.00005120   -0.00000426
     atom   57 type  1   force =    -0.00276292    0.00398162   -0.00273996
     atom   58 type  1   force =    -0.00001051   -0.00003064   -0.00007638
     atom   59 type  1   force =     0.00021399    0.00001492   -0.00006581
     atom   60 type  1   force =    -0.00004711    0.00005635   -0.00005812
     atom   61 type  1   force =     0.00375998    0.00241970   -0.00252146
     atom   62 type  1   force =    -0.00004075    0.00029411   -0.00006595
     atom   63 type  1   force =    -0.00008531    0.00006369   -0.00007637
     atom   64 type  1   force =    -0.00000360    0.00000446   -0.00006000

     Total force =     0.026708     Total SCF correction =     0.000036


     Computing stress (Cartesian axis) and pressure

          total   stress  (Ry/bohr**3)                   (kbar)     P=    0.12
   0.00000074  -0.00000000   0.00000238          0.11     -0.00      0.35
  -0.00000000   0.00000074   0.00000238         -0.00      0.11      0.35
   0.00000238   0.00000238   0.00000089          0.35      0.35      0.13


     init_run     :     40.15s CPU     40.97s WALL (       1 calls)
     electrons    :    877.65s CPU    898.13s WALL (       1 calls)
     forces       :     11.62s CPU     11.84s WALL (       1 calls)
     stress       :     56.46s CPU     56.71s WALL (       1 calls)

     Called by init_run:
     wfcinit      :     37.08s CPU     37.79s WALL (       1 calls)
     potinit      :      1.07s CPU      1.09s WALL (       1 calls)

     Called by electrons:
     c_bands      :    729.31s CPU    746.32s WALL (      14 calls)
     sum_band     :    131.68s CPU    134.25s WALL (      14 calls)
     v_of_rho     :      5.44s CPU      5.57s WALL (      14 calls)
     newd         :      2.90s CPU      3.73s WALL (      14 calls)
     PAW_pot      :      8.11s CPU      8.11s WALL (      14 calls)
     mix_rho      :      1.22s CPU      1.25s WALL (      14 calls)

     Called by c_bands:
     init_us_2    :      7.77s CPU      7.80s WALL (     124 calls)
     cegterg      :    714.49s CPU    731.46s WALL (      56 calls)

     Called by sum_band:
     sum_band:bec :      0.02s CPU      0.02s WALL (      56 calls)
     addusdens    :      3.56s CPU      4.35s WALL (      14 calls)

     Called by *egterg:
     h_psi        :    635.20s CPU    645.84s WALL (     199 calls)
     s_psi        :     36.68s CPU     36.66s WALL (     199 calls)
     g_psi        :      1.31s CPU      1.30s WALL (     139 calls)
     cdiaghg      :      4.55s CPU      4.56s WALL (     191 calls)

     Called by h_psi:
     h_psi:pot    :    631.12s CPU    641.72s WALL (     199 calls)
     h_psi:calbec :     36.39s CPU     36.43s WALL (     199 calls)
     vloc_psi     :    558.27s CPU    568.80s WALL (     199 calls)
     add_vuspsi   :     36.46s CPU     36.49s WALL (     199 calls)

     General routines
     calbec       :     53.45s CPU     53.49s WALL (     275 calls)
     fft          :      4.54s CPU      4.81s WALL (     209 calls)
     fftw         :    563.15s CPU    575.31s WALL (   48974 calls)

     Parallel routines
     fft_scatt_xy :     94.64s CPU     94.80s WALL (   49183 calls)
     fft_scatt_yz :    104.56s CPU    110.18s WALL (   49183 calls)

     PWSCF        : 16m25.97s CPU    16m47.77s WALL


   This run was terminated on:  18:20:12  24Oct2021            

=------------------------------------------------------------------------------=
   JOB DONE.
=------------------------------------------------------------------------------=
Note: The following floating-point exceptions are signalling: IEEE_UNDERFLOW_FLAG IEEE_DENORMAL
