
     Program PWSCF v.6.2 (svn rev. 13949:13950) starts on 24Oct2021 at 21:55:48 

     This program is part of the open-source Quantum ESPRESSO suite
     for quantum simulation of materials; please cite
         "P. Giannozzi et al., J. Phys.:Condens. Matter 21 395502 (2009);
         "P. Giannozzi et al., J. Phys.:Condens. Matter 29 465901 (2017);
          URL http://www.quantum-espresso.org", 
     in publications or presentations arising from this work. More details at
     http://www.quantum-espresso.org/quote

     Parallel version (MPI), running on     4 processors

     MPI processes distributed on     1 nodes
     R & G space division:  proc/nbgrp/npool/nimage =       4
     Reading input from headeradd_supercell-00031.in

     Current dimensions of program PWSCF are:
     Max number of different atomic species (ntypx) = 10
     Max number of k-points (npk) =  40000
     Max angular momentum in pseudopotentials (lmaxx) =  3
     Message from routine iosys:
     minimal I/O required, wf_collect reset to FALSE
               file Si.pbe-n-kjpaw_psl.0.1.UPF: wavefunction(s)  3S renormalized

     Subspace diagonalization in iterative solution of the eigenvalue problem:
     a serial algorithm will be used


     Parallelization info
     --------------------
     sticks:   dense  smooth     PW     G-vecs:    dense   smooth      PW
     Min        2372    2372    612               174341   174341   22844
     Max        2374    2374    613               174344   174344   22847
     Sum        9493    9493   2449               697371   697371   91383



     bravais-lattice index     =            0
     lattice parameter (alat)  =      20.6591  a.u.
     unit-cell volume          =    8817.2783 (a.u.)^3
     number of atoms/cell      =           64
     number of atomic types    =            1
     number of electrons       =       256.00
     number of Kohn-Sham states=          128
     kinetic-energy cutoff     =      70.0000  Ry
     charge density cutoff     =     280.0000  Ry
     convergence threshold     =      1.0E-09
     mixing beta               =       0.7000
     number of iterations used =            8  plain     mixing
     Exchange-correlation      =  SLA  PW   PBX  PBC ( 1  4  3  4 0 0)

     celldm(1)=  20.659106  celldm(2)=   0.000000  celldm(3)=   0.000000
     celldm(4)=   0.000000  celldm(5)=   0.000000  celldm(6)=   0.000000

     crystal axes: (cart. coord. in units of alat)
               a(1) = (   1.000000   0.000000   0.000000 )  
               a(2) = (   0.000000   1.000000   0.000000 )  
               a(3) = (   0.000000   0.000000   1.000000 )  

     reciprocal axes: (cart. coord. in units 2 pi/alat)
               b(1) = (  1.000000  0.000000  0.000000 )  
               b(2) = (  0.000000  1.000000  0.000000 )  
               b(3) = (  0.000000  0.000000  1.000000 )  


     PseudoPot. # 1 for Si read from file:
     /home/uezono/pseudo/Si.pbe-n-kjpaw_psl.0.1.UPF
     MD5 check sum: 0810ef13ebffcf5dbabd57b297315270
     Pseudo is Projector augmented-wave + core cor, Zval =  4.0
     Generated using "atomic" code by A. Dal Corso  v.5.0.2 svn rev. 9415
     Shape of augmentation charge: PSQ
     Using radial grid of 1141 points,  4 beta functions with: 
                l(1) =   0
                l(2) =   0
                l(3) =   1
                l(4) =   1
     Q(r) pseudized with 0 coefficients 


     atomic species   valence    mass     pseudopotential
        Si             4.00    28.08550     Si( 1.00)

      2 Sym. Ops. (no inversion) found ( 1 have fractional translation)



   Cartesian axes

     site n.     atom                  positions (alat units)
         1           Si  tau(   1) = (   0.4404043   0.4375000   0.4375000  )
         2           Si  tau(   2) = (   0.9375000   0.4375000   0.4375000  )
         3           Si  tau(   3) = (   0.4375000   0.9375000   0.4375000  )
         4           Si  tau(   4) = (   0.9375000   0.9375000   0.4375000  )
         5           Si  tau(   5) = (   0.4375000   0.4375000   0.9375000  )
         6           Si  tau(   6) = (   0.9375000   0.4375000   0.9375000  )
         7           Si  tau(   7) = (   0.4375000   0.9375000   0.9375000  )
         8           Si  tau(   8) = (   0.9375000   0.9375000   0.9375000  )
         9           Si  tau(   9) = (   0.4375000   0.1875000   0.1875000  )
        10           Si  tau(  10) = (   0.9375000   0.1875000   0.1875000  )
        11           Si  tau(  11) = (   0.4375000   0.6875000   0.1875000  )
        12           Si  tau(  12) = (   0.9345957   0.6875000   0.1875000  )
        13           Si  tau(  13) = (   0.4375000   0.1875000   0.6875000  )
        14           Si  tau(  14) = (   0.9375000   0.1875000   0.6875000  )
        15           Si  tau(  15) = (   0.4375000   0.6875000   0.6875000  )
        16           Si  tau(  16) = (   0.9375000   0.6875000   0.6875000  )
        17           Si  tau(  17) = (   0.1875000   0.4375000   0.1875000  )
        18           Si  tau(  18) = (   0.6875000   0.4375000   0.1875000  )
        19           Si  tau(  19) = (   0.1875000   0.9375000   0.1875000  )
        20           Si  tau(  20) = (   0.6875000   0.9375000   0.1875000  )
        21           Si  tau(  21) = (   0.1875000   0.4375000   0.6875000  )
        22           Si  tau(  22) = (   0.6875000   0.4375000   0.6875000  )
        23           Si  tau(  23) = (   0.1875000   0.9375000   0.6875000  )
        24           Si  tau(  24) = (   0.6875000   0.9375000   0.6875000  )
        25           Si  tau(  25) = (   0.1875000   0.1875000   0.4375000  )
        26           Si  tau(  26) = (   0.6875000   0.1875000   0.4375000  )
        27           Si  tau(  27) = (   0.1875000   0.6875000   0.4375000  )
        28           Si  tau(  28) = (   0.6875000   0.6875000   0.4375000  )
        29           Si  tau(  29) = (   0.1875000   0.1875000   0.9375000  )
        30           Si  tau(  30) = (   0.6875000   0.1875000   0.9375000  )
        31           Si  tau(  31) = (   0.1875000   0.6875000   0.9375000  )
        32           Si  tau(  32) = (   0.6875000   0.6875000   0.9375000  )
        33           Si  tau(  33) = (   0.0625000   0.0625000   0.0625000  )
        34           Si  tau(  34) = (   0.5625000   0.0625000   0.0625000  )
        35           Si  tau(  35) = (   0.0625000   0.5625000   0.0625000  )
        36           Si  tau(  36) = (   0.5625000   0.5625000   0.0625000  )
        37           Si  tau(  37) = (   0.0625000   0.0625000   0.5625000  )
        38           Si  tau(  38) = (   0.5625000   0.0625000   0.5625000  )
        39           Si  tau(  39) = (   0.0625000   0.5625000   0.5625000  )
        40           Si  tau(  40) = (   0.5625000   0.5625000   0.5625000  )
        41           Si  tau(  41) = (   0.0625000   0.3125000   0.3125000  )
        42           Si  tau(  42) = (   0.5625000   0.3125000   0.3125000  )
        43           Si  tau(  43) = (   0.0625000   0.8125000   0.3125000  )
        44           Si  tau(  44) = (   0.5625000   0.8125000   0.3125000  )
        45           Si  tau(  45) = (   0.0625000   0.3125000   0.8125000  )
        46           Si  tau(  46) = (   0.5625000   0.3125000   0.8125000  )
        47           Si  tau(  47) = (   0.0625000   0.8125000   0.8125000  )
        48           Si  tau(  48) = (   0.5625000   0.8125000   0.8125000  )
        49           Si  tau(  49) = (   0.3125000   0.0625000   0.3125000  )
        50           Si  tau(  50) = (   0.8125000   0.0625000   0.3125000  )
        51           Si  tau(  51) = (   0.3125000   0.5625000   0.3125000  )
        52           Si  tau(  52) = (   0.8125000   0.5625000   0.3125000  )
        53           Si  tau(  53) = (   0.3125000   0.0625000   0.8125000  )
        54           Si  tau(  54) = (   0.8125000   0.0625000   0.8125000  )
        55           Si  tau(  55) = (   0.3125000   0.5625000   0.8125000  )
        56           Si  tau(  56) = (   0.8125000   0.5625000   0.8125000  )
        57           Si  tau(  57) = (   0.3125000   0.3125000   0.0625000  )
        58           Si  tau(  58) = (   0.8125000   0.3125000   0.0625000  )
        59           Si  tau(  59) = (   0.3125000   0.8125000   0.0625000  )
        60           Si  tau(  60) = (   0.8125000   0.8125000   0.0625000  )
        61           Si  tau(  61) = (   0.3125000   0.3125000   0.5625000  )
        62           Si  tau(  62) = (   0.8125000   0.3125000   0.5625000  )
        63           Si  tau(  63) = (   0.3125000   0.8125000   0.5625000  )
        64           Si  tau(  64) = (   0.8125000   0.8125000   0.5625000  )

     number of k points=     3
                       cart. coord. in units 2pi/alat
        k(    1) = (   0.2500000   0.2500000   0.2500000), wk =   1.0000000
        k(    2) = (  -0.2500000   0.2500000  -0.2500000), wk =   0.5000000
        k(    3) = (   0.2500000   0.2500000  -0.2500000), wk =   0.5000000

     Dense  grid:   697371 G-vectors     FFT dimensions: ( 120, 120, 120)

     Estimated max dynamical RAM per process >       1.04 GB

     Estimated total dynamical RAM >       4.16 GB

     Initial potential from superposition of free atoms

     starting charge  255.96421, renormalised to  256.00000
     Starting wfc are  256 randomized atomic wfcs
     Checking if some PAW data can be deallocated... 

     total cpu time spent up to now is       31.7 secs

     Self-consistent Calculation

     iteration #  1     ecut=    70.00 Ry     beta= 0.70
     Davidson diagonalization with overlap
     ethr =  1.00E-02,  avg # of iterations =  2.0

     Threshold (ethr) on eigenvalues was too large:
     Diagonalizing with lowered threshold

     Davidson diagonalization with overlap
     ethr =  6.98E-04,  avg # of iterations =  1.0

     total cpu time spent up to now is      118.3 secs

     total energy              =   -2990.46251416 Ry
     Harris-Foulkes estimate   =   -2990.87995129 Ry
     estimated scf accuracy    <       1.76611891 Ry

     iteration #  2     ecut=    70.00 Ry     beta= 0.70
     Davidson diagonalization with overlap
     ethr =  6.90E-04,  avg # of iterations =  1.0

     total cpu time spent up to now is      155.5 secs

     total energy              =   -2990.52628209 Ry
     Harris-Foulkes estimate   =   -2990.53055852 Ry
     estimated scf accuracy    <       0.07830052 Ry

     iteration #  3     ecut=    70.00 Ry     beta= 0.70
     Davidson diagonalization with overlap
     ethr =  3.06E-05,  avg # of iterations =  2.3

     total cpu time spent up to now is      198.7 secs

     total energy              =   -2990.53501735 Ry
     Harris-Foulkes estimate   =   -2990.53563175 Ry
     estimated scf accuracy    <       0.00172880 Ry

     iteration #  4     ecut=    70.00 Ry     beta= 0.70
     Davidson diagonalization with overlap
     ethr =  6.75E-07,  avg # of iterations =  3.0

     total cpu time spent up to now is      257.2 secs

     total energy              =   -2990.53577890 Ry
     Harris-Foulkes estimate   =   -2990.53604571 Ry
     estimated scf accuracy    <       0.00062830 Ry

     iteration #  5     ecut=    70.00 Ry     beta= 0.70
     Davidson diagonalization with overlap
     ethr =  2.45E-07,  avg # of iterations =  3.0

     total cpu time spent up to now is      307.1 secs

     total energy              =   -2990.53590117 Ry
     Harris-Foulkes estimate   =   -2990.53594373 Ry
     estimated scf accuracy    <       0.00010959 Ry

     iteration #  6     ecut=    70.00 Ry     beta= 0.70
     Davidson diagonalization with overlap
     ethr =  4.28E-08,  avg # of iterations =  3.0

     total cpu time spent up to now is      357.6 secs

     total energy              =   -2990.53591705 Ry
     Harris-Foulkes estimate   =   -2990.53593746 Ry
     estimated scf accuracy    <       0.00006684 Ry

     iteration #  7     ecut=    70.00 Ry     beta= 0.70
     Davidson diagonalization with overlap
     ethr =  2.61E-08,  avg # of iterations =  2.0

     total cpu time spent up to now is      402.2 secs

     total energy              =   -2990.53592678 Ry
     Harris-Foulkes estimate   =   -2990.53592719 Ry
     estimated scf accuracy    <       0.00000083 Ry

     iteration #  8     ecut=    70.00 Ry     beta= 0.70
     Davidson diagonalization with overlap
     ethr =  3.24E-10,  avg # of iterations =  3.0

     total cpu time spent up to now is      468.7 secs

     total energy              =   -2990.53592738 Ry
     Harris-Foulkes estimate   =   -2990.53592761 Ry
     estimated scf accuracy    <       0.00000028 Ry

     iteration #  9     ecut=    70.00 Ry     beta= 0.70
     Davidson diagonalization with overlap
     ethr =  1.08E-10,  avg # of iterations =  3.0

     total cpu time spent up to now is      515.5 secs

     total energy              =   -2990.53592733 Ry
     Harris-Foulkes estimate   =   -2990.53592744 Ry
     estimated scf accuracy    <       0.00000011 Ry

     iteration # 10     ecut=    70.00 Ry     beta= 0.70
     Davidson diagonalization with overlap
     ethr =  4.27E-11,  avg # of iterations =  3.0

     total cpu time spent up to now is      563.0 secs

     total energy              =   -2990.53592732 Ry
     Harris-Foulkes estimate   =   -2990.53592735 Ry
     estimated scf accuracy    <       0.00000002 Ry

     iteration # 11     ecut=    70.00 Ry     beta= 0.70
     Davidson diagonalization with overlap
     ethr =  8.08E-12,  avg # of iterations =  3.0

     total cpu time spent up to now is      610.4 secs

     total energy              =   -2990.53592733 Ry
     Harris-Foulkes estimate   =   -2990.53592732 Ry
     estimated scf accuracy    <          1.7E-09 Ry

     iteration # 12     ecut=    70.00 Ry     beta= 0.70
     Davidson diagonalization with overlap
     ethr =  6.76E-13,  avg # of iterations =  3.0

     total cpu time spent up to now is      669.8 secs

     total energy              =   -2990.53592733 Ry
     Harris-Foulkes estimate   =   -2990.53592733 Ry
     estimated scf accuracy    <          1.4E-09 Ry

     iteration # 13     ecut=    70.00 Ry     beta= 0.70
     Davidson diagonalization with overlap
     ethr =  5.52E-13,  avg # of iterations =  3.0

     total cpu time spent up to now is      717.0 secs

     End of self-consistent calculation

          k = 0.2500 0.2500 0.2500 ( 87251 PWs)   bands (ev):

    -5.6251  -5.1000  -5.0963  -5.0926  -4.6003  -4.5968  -4.5930  -4.1630
    -4.0670  -4.0634  -4.0598  -3.6546  -3.6494  -3.6477  -3.6463  -3.6446
    -3.6399  -3.4571  -3.4548  -3.4523  -2.9625  -2.9586  -2.9546  -2.5942
    -2.5893  -2.5844  -2.4281  -2.4231  -2.4212  -2.4203  -2.4184  -2.4132
    -0.8875  -0.8815  -0.8789  -0.8775  -0.8750  -0.8694  -0.7864  -0.7803
    -0.7748  -0.6649  -0.6623  -0.6592  -0.5836  -0.5762  -0.5685   0.1263
     0.2016   0.2062   0.2097   0.2117   0.2156   0.2197   1.0782   1.0854
     1.0924   1.4162   1.4183   1.4205   2.0250   2.0266   2.0289   2.0295
     2.0313   2.0330   2.0860   2.0884   2.0907   2.6370   2.6402   2.6431
     2.7388   2.7398   2.7418   2.7445   2.7460   2.7467   2.7936   2.7968
     2.8002   3.1016   3.1049   3.1070   3.1082   3.1104   3.1134   3.3697
     3.3720   3.3734   3.3844   3.3861   3.3880   3.7301   3.7346   3.7386
     3.7533   3.7562   3.7604   3.8366   3.8394   3.8426   4.1076   4.1113
     4.1138   4.1147   4.1168   4.1211   4.1503   4.1535   4.1572   4.4133
     4.4680   4.4712   4.4737   4.7112   4.7143   4.7177   4.7726   4.7787
     4.7856   4.9359   4.9363   5.2394   5.2435   5.2480   5.7239   5.7241

          k =-0.2500 0.2500-0.2500 ( 87251 PWs)   bands (ev):

    -5.6251  -5.0996  -5.0962  -5.0933  -4.5997  -4.5966  -4.5938  -4.1632
    -4.0667  -4.0633  -4.0601  -3.6562  -3.6490  -3.6482  -3.6474  -3.6445
    -3.6370  -3.4571  -3.4548  -3.4523  -2.9624  -2.9585  -2.9548  -2.5942
    -2.5893  -2.5843  -2.4282  -2.4233  -2.4213  -2.4210  -2.4179  -2.4129
    -0.8841  -0.8815  -0.8785  -0.8784  -0.8746  -0.8730  -0.7863  -0.7802
    -0.7745  -0.6651  -0.6624  -0.6592  -0.5811  -0.5762  -0.5708   0.1263
     0.2028   0.2068   0.2101   0.2106   0.2151   0.2191   1.0832   1.0853
     1.0877   1.4165   1.4182   1.4201   2.0243   2.0272   2.0290   2.0304
     2.0315   2.0324   2.0860   2.0880   2.0908   2.6370   2.6402   2.6430
     2.7374   2.7386   2.7423   2.7429   2.7481   2.7496   2.7944   2.7961
     2.7986   3.1039   3.1054   3.1068   3.1074   3.1086   3.1134   3.3698
     3.3720   3.3733   3.3843   3.3868   3.3877   3.7328   3.7348   3.7356
     3.7537   3.7563   3.7601   3.8376   3.8396   3.8413   4.1100   4.1111
     4.1130   4.1138   4.1158   4.1216   4.1513   4.1544   4.1555   4.4127
     4.4679   4.4716   4.4737   4.7121   4.7146   4.7168   4.7753   4.7786
     4.7827   4.9362   4.9363   5.2403   5.2437   5.2466   5.7239   5.7241

          k = 0.2500 0.2500-0.2500 ( 87251 PWs)   bands (ev):

    -5.6251  -5.0997  -5.0962  -5.0931  -4.5999  -4.5966  -4.5936  -4.1633
    -4.0669  -4.0633  -4.0599  -3.6575  -3.6495  -3.6465  -3.6458  -3.6450
    -3.6382  -3.4571  -3.4548  -3.4523  -2.9626  -2.9585  -2.9546  -2.5942
    -2.5893  -2.5843  -2.4283  -2.4237  -2.4204  -2.4204  -2.4184  -2.4132
    -0.8839  -0.8819  -0.8789  -0.8776  -0.8751  -0.8728  -0.7861  -0.7802
    -0.7746  -0.6649  -0.6624  -0.6594  -0.5807  -0.5762  -0.5712   0.1263
     0.2027   0.2062   0.2109   0.2113   0.2146   0.2188   1.0833   1.0853
     1.0876   1.4166   1.4182   1.4200   2.0262   2.0269   2.0273   2.0295
     2.0312   2.0336   2.0860   2.0880   2.0908   2.6370   2.6402   2.6430
     2.7364   2.7384   2.7436   2.7442   2.7477   2.7488   2.7941   2.7961
     2.7989   3.1019   3.1067   3.1077   3.1084   3.1096   3.1113   3.3696
     3.3720   3.3735   3.3842   3.3867   3.3877   3.7322   3.7348   3.7365
     3.7527   3.7563   3.7606   3.8377   3.8396   3.8412   4.1075   4.1126
     4.1147   4.1153   4.1165   4.1186   4.1514   4.1545   4.1554   4.4127
     4.4679   4.4716   4.4736   4.7122   4.7146   4.7168   4.7754   4.7786
     4.7826   4.9362   4.9363   5.2404   5.2437   5.2466   5.7239   5.7241

     highest occupied level (ev):     5.7241

!    total energy              =   -2990.53592733 Ry
     Harris-Foulkes estimate   =   -2990.53592733 Ry
     estimated scf accuracy    <          3.9E-10 Ry

     total all-electron energy =    -37124.671481 Ry

     The total energy is the sum of the following terms:

     one-electron contribution =     178.60371743 Ry
     hartree contribution      =      35.70194642 Ry
     xc contribution           =    -391.44049864 Ry
     ewald contribution        =    -534.00608258 Ry
     one-center paw contrib.   =   -2279.39500995 Ry

     convergence has been achieved in  13 iterations

     Forces acting on atoms (cartesian axes, Ry/au):

     atom    1 type  1   force =    -0.01586709    0.00000989   -0.00000989
     atom    2 type  1   force =     0.00055026    0.00011437   -0.00011437
     atom    3 type  1   force =     0.00005429    0.00000913    0.00000918
     atom    4 type  1   force =     0.00051715    0.00010920    0.00010896
     atom    5 type  1   force =     0.00005429   -0.00000918   -0.00000913
     atom    6 type  1   force =     0.00051715   -0.00010896   -0.00010920
     atom    7 type  1   force =    -0.00047452   -0.00000980    0.00000980
     atom    8 type  1   force =     0.00055258   -0.00011437    0.00011437
     atom    9 type  1   force =    -0.00052132    0.00011406    0.00011396
     atom   10 type  1   force =    -0.00005508    0.00000929    0.00000962
     atom   11 type  1   force =    -0.00054602    0.00010957   -0.00010957
     atom   12 type  1   force =     0.01586611    0.00000948   -0.00000948
     atom   13 type  1   force =    -0.00054776   -0.00010949    0.00010949
     atom   14 type  1   force =     0.00047482   -0.00000967    0.00000967
     atom   15 type  1   force =    -0.00052132   -0.00011396   -0.00011406
     atom   16 type  1   force =    -0.00005508   -0.00000962   -0.00000929
     atom   17 type  1   force =    -0.00000082    0.00011765    0.00033651
     atom   18 type  1   force =     0.00000018   -0.00034710   -0.00011895
     atom   19 type  1   force =    -0.00018964   -0.00023708   -0.00018666
     atom   20 type  1   force =    -0.00019504    0.00022337   -0.00003737
     atom   21 type  1   force =     0.00018835    0.00003359   -0.00021780
     atom   22 type  1   force =     0.00019616    0.00019094    0.00024248
     atom   23 type  1   force =    -0.00000046    0.00008563    0.00006748
     atom   24 type  1   force =     0.00000063   -0.00006720   -0.00008599
     atom   25 type  1   force =     0.00018835    0.00021780   -0.00003359
     atom   26 type  1   force =     0.00019616   -0.00024248   -0.00019094
     atom   27 type  1   force =    -0.00000082   -0.00033651   -0.00011765
     atom   28 type  1   force =     0.00000018    0.00011895    0.00034710
     atom   29 type  1   force =    -0.00000046   -0.00006748   -0.00008563
     atom   30 type  1   force =     0.00000063    0.00008599    0.00006720
     atom   31 type  1   force =    -0.00018964    0.00018666    0.00023708
     atom   32 type  1   force =    -0.00019504    0.00003737   -0.00022337
     atom   33 type  1   force =     0.00003704    0.00006845    0.00008337
     atom   34 type  1   force =     0.00022802    0.00005431    0.00005755
     atom   35 type  1   force =    -0.00378464    0.00250828    0.00250657
     atom   36 type  1   force =    -0.00004778    0.00008804    0.00007659
     atom   37 type  1   force =    -0.00022693    0.00005201    0.00005369
     atom   38 type  1   force =    -0.00003852    0.00006906    0.00008054
     atom   39 type  1   force =     0.00004559    0.00009023    0.00007556
     atom   40 type  1   force =     0.00390157    0.00273420    0.00273076
     atom   41 type  1   force =     0.00004559   -0.00007556   -0.00009023
     atom   42 type  1   force =     0.00390157   -0.00273076   -0.00273420
     atom   43 type  1   force =    -0.00378464   -0.00250657   -0.00250828
     atom   44 type  1   force =    -0.00004778   -0.00007659   -0.00008804
     atom   45 type  1   force =    -0.00022693   -0.00005369   -0.00005201
     atom   46 type  1   force =    -0.00003852   -0.00008054   -0.00006906
     atom   47 type  1   force =     0.00003704   -0.00008337   -0.00006845
     atom   48 type  1   force =     0.00022802   -0.00005755   -0.00005431
     atom   49 type  1   force =    -0.00008542   -0.00006250    0.00007770
     atom   50 type  1   force =     0.00008899   -0.00006527    0.00007870
     atom   51 type  1   force =     0.00382389   -0.00251985    0.00251985
     atom   52 type  1   force =    -0.00394048   -0.00274222    0.00274222
     atom   53 type  1   force =     0.00027377   -0.00005934    0.00005934
     atom   54 type  1   force =    -0.00027708   -0.00005889    0.00005889
     atom   55 type  1   force =    -0.00008542   -0.00007770    0.00006250
     atom   56 type  1   force =     0.00008899   -0.00007870    0.00006527
     atom   57 type  1   force =    -0.00008533    0.00007663   -0.00006355
     atom   58 type  1   force =     0.00008892    0.00006791   -0.00007612
     atom   59 type  1   force =     0.00026480    0.00006565   -0.00006565
     atom   60 type  1   force =    -0.00394976    0.00273507   -0.00273507
     atom   61 type  1   force =     0.00383250    0.00251346   -0.00251346
     atom   62 type  1   force =    -0.00026785    0.00006609   -0.00006609
     atom   63 type  1   force =    -0.00008533    0.00006355   -0.00007663
     atom   64 type  1   force =     0.00008892    0.00007612   -0.00006791

     Total force =     0.027177     Total SCF correction =     0.000039


     Computing stress (Cartesian axis) and pressure

          total   stress  (Ry/bohr**3)                   (kbar)     P=    0.12
   0.00000059   0.00000000  -0.00000000          0.09      0.00     -0.00
   0.00000000   0.00000089   0.00000000          0.00      0.13      0.00
  -0.00000000   0.00000000   0.00000089         -0.00      0.00      0.13


     init_run     :     30.92s CPU     31.58s WALL (       1 calls)
     electrons    :    670.12s CPU    685.35s WALL (       1 calls)
     forces       :     10.38s CPU     10.57s WALL (       1 calls)
     stress       :     44.54s CPU     44.81s WALL (       1 calls)

     Called by init_run:
     wfcinit      :     27.82s CPU     28.37s WALL (       1 calls)
     potinit      :      1.06s CPU      1.09s WALL (       1 calls)

     Called by electrons:
     c_bands      :    552.30s CPU    564.48s WALL (      14 calls)
     sum_band     :    101.18s CPU    103.32s WALL (      14 calls)
     v_of_rho     :      5.44s CPU      5.57s WALL (      14 calls)
     newd         :      2.90s CPU      3.72s WALL (      14 calls)
     PAW_pot      :      8.10s CPU      8.10s WALL (      14 calls)
     mix_rho      :      1.21s CPU      1.25s WALL (      14 calls)

     Called by c_bands:
     init_us_2    :      5.49s CPU      5.52s WALL (      93 calls)
     cegterg      :    541.19s CPU    553.32s WALL (      42 calls)

     Called by sum_band:
     sum_band:bec :      0.00s CPU      0.01s WALL (      42 calls)
     addusdens    :      3.50s CPU      4.36s WALL (      14 calls)

     Called by *egterg:
     h_psi        :    480.60s CPU    487.92s WALL (     151 calls)
     s_psi        :     27.80s CPU     27.80s WALL (     151 calls)
     g_psi        :      0.97s CPU      0.97s WALL (     106 calls)
     cdiaghg      :      3.50s CPU      3.50s WALL (     145 calls)

     Called by h_psi:
     h_psi:pot    :    477.59s CPU    484.84s WALL (     151 calls)
     h_psi:calbec :     27.67s CPU     27.73s WALL (     151 calls)
     vloc_psi     :    422.23s CPU    429.44s WALL (     151 calls)
     add_vuspsi   :     27.69s CPU     27.67s WALL (     151 calls)

     General routines
     calbec       :     40.84s CPU     40.90s WALL (     208 calls)
     fft          :      4.60s CPU      4.91s WALL (     209 calls)
     fftw         :    425.64s CPU    433.73s WALL (   36970 calls)

     Parallel routines
     fft_scatt_xy :     72.34s CPU     72.56s WALL (   37179 calls)
     fft_scatt_yz :     77.74s CPU     81.95s WALL (   37179 calls)

     PWSCF        : 12m36.05s CPU    12m52.43s WALL


   This run was terminated on:  22: 8:40  24Oct2021            

=------------------------------------------------------------------------------=
   JOB DONE.
=------------------------------------------------------------------------------=
Note: The following floating-point exceptions are signalling: IEEE_UNDERFLOW_FLAG IEEE_DENORMAL
