
     Program PWSCF v.6.2 (svn rev. 13949:13950) starts on 24Oct2021 at 15: 3:12 

     This program is part of the open-source Quantum ESPRESSO suite
     for quantum simulation of materials; please cite
         "P. Giannozzi et al., J. Phys.:Condens. Matter 21 395502 (2009);
         "P. Giannozzi et al., J. Phys.:Condens. Matter 29 465901 (2017);
          URL http://www.quantum-espresso.org", 
     in publications or presentations arising from this work. More details at
     http://www.quantum-espresso.org/quote

     Parallel version (MPI), running on     4 processors

     MPI processes distributed on     1 nodes
     R & G space division:  proc/nbgrp/npool/nimage =       4
     Reading input from headeradd_supercell-00005.in

     Current dimensions of program PWSCF are:
     Max number of different atomic species (ntypx) = 10
     Max number of k-points (npk) =  40000
     Max angular momentum in pseudopotentials (lmaxx) =  3
     Message from routine iosys:
     minimal I/O required, wf_collect reset to FALSE
               file Si.pbe-n-kjpaw_psl.0.1.UPF: wavefunction(s)  3S renormalized

     Subspace diagonalization in iterative solution of the eigenvalue problem:
     a serial algorithm will be used


     Parallelization info
     --------------------
     sticks:   dense  smooth     PW     G-vecs:    dense   smooth      PW
     Min        2372    2372    612               174341   174341   22844
     Max        2374    2374    613               174344   174344   22847
     Sum        9493    9493   2449               697371   697371   91383



     bravais-lattice index     =            0
     lattice parameter (alat)  =      20.6591  a.u.
     unit-cell volume          =    8817.2783 (a.u.)^3
     number of atoms/cell      =           64
     number of atomic types    =            1
     number of electrons       =       256.00
     number of Kohn-Sham states=          128
     kinetic-energy cutoff     =      70.0000  Ry
     charge density cutoff     =     280.0000  Ry
     convergence threshold     =      1.0E-09
     mixing beta               =       0.7000
     number of iterations used =            8  plain     mixing
     Exchange-correlation      =  SLA  PW   PBX  PBC ( 1  4  3  4 0 0)

     celldm(1)=  20.659106  celldm(2)=   0.000000  celldm(3)=   0.000000
     celldm(4)=   0.000000  celldm(5)=   0.000000  celldm(6)=   0.000000

     crystal axes: (cart. coord. in units of alat)
               a(1) = (   1.000000   0.000000   0.000000 )  
               a(2) = (   0.000000   1.000000   0.000000 )  
               a(3) = (   0.000000   0.000000   1.000000 )  

     reciprocal axes: (cart. coord. in units 2 pi/alat)
               b(1) = (  1.000000  0.000000  0.000000 )  
               b(2) = (  0.000000  1.000000  0.000000 )  
               b(3) = (  0.000000  0.000000  1.000000 )  


     PseudoPot. # 1 for Si read from file:
     /home/uezono/pseudo/Si.pbe-n-kjpaw_psl.0.1.UPF
     MD5 check sum: 0810ef13ebffcf5dbabd57b297315270
     Pseudo is Projector augmented-wave + core cor, Zval =  4.0
     Generated using "atomic" code by A. Dal Corso  v.5.0.2 svn rev. 9415
     Shape of augmentation charge: PSQ
     Using radial grid of 1141 points,  4 beta functions with: 
                l(1) =   0
                l(2) =   0
                l(3) =   1
                l(4) =   1
     Q(r) pseudized with 0 coefficients 


     atomic species   valence    mass     pseudopotential
        Si             4.00    28.08550     Si( 1.00)

     No symmetry found



   Cartesian axes

     site n.     atom                  positions (alat units)
         1           Si  tau(   1) = (   0.4404043   0.4375000   0.4375000  )
         2           Si  tau(   2) = (   0.9354464   0.4354464   0.4375000  )
         3           Si  tau(   3) = (   0.4375000   0.9375000   0.4375000  )
         4           Si  tau(   4) = (   0.9375000   0.9375000   0.4375000  )
         5           Si  tau(   5) = (   0.4375000   0.4375000   0.9375000  )
         6           Si  tau(   6) = (   0.9375000   0.4375000   0.9375000  )
         7           Si  tau(   7) = (   0.4375000   0.9375000   0.9375000  )
         8           Si  tau(   8) = (   0.9375000   0.9375000   0.9375000  )
         9           Si  tau(   9) = (   0.4375000   0.1875000   0.1875000  )
        10           Si  tau(  10) = (   0.9375000   0.1875000   0.1875000  )
        11           Si  tau(  11) = (   0.4375000   0.6875000   0.1875000  )
        12           Si  tau(  12) = (   0.9375000   0.6875000   0.1875000  )
        13           Si  tau(  13) = (   0.4375000   0.1875000   0.6875000  )
        14           Si  tau(  14) = (   0.9375000   0.1875000   0.6875000  )
        15           Si  tau(  15) = (   0.4375000   0.6875000   0.6875000  )
        16           Si  tau(  16) = (   0.9375000   0.6875000   0.6875000  )
        17           Si  tau(  17) = (   0.1875000   0.4375000   0.1875000  )
        18           Si  tau(  18) = (   0.6875000   0.4375000   0.1875000  )
        19           Si  tau(  19) = (   0.1875000   0.9375000   0.1875000  )
        20           Si  tau(  20) = (   0.6875000   0.9375000   0.1875000  )
        21           Si  tau(  21) = (   0.1875000   0.4375000   0.6875000  )
        22           Si  tau(  22) = (   0.6875000   0.4375000   0.6875000  )
        23           Si  tau(  23) = (   0.1875000   0.9375000   0.6875000  )
        24           Si  tau(  24) = (   0.6875000   0.9375000   0.6875000  )
        25           Si  tau(  25) = (   0.1875000   0.1875000   0.4375000  )
        26           Si  tau(  26) = (   0.6875000   0.1875000   0.4375000  )
        27           Si  tau(  27) = (   0.1875000   0.6875000   0.4375000  )
        28           Si  tau(  28) = (   0.6875000   0.6875000   0.4375000  )
        29           Si  tau(  29) = (   0.1875000   0.1875000   0.9375000  )
        30           Si  tau(  30) = (   0.6875000   0.1875000   0.9375000  )
        31           Si  tau(  31) = (   0.1875000   0.6875000   0.9375000  )
        32           Si  tau(  32) = (   0.6875000   0.6875000   0.9375000  )
        33           Si  tau(  33) = (   0.0625000   0.0625000   0.0625000  )
        34           Si  tau(  34) = (   0.5625000   0.0625000   0.0625000  )
        35           Si  tau(  35) = (   0.0625000   0.5625000   0.0625000  )
        36           Si  tau(  36) = (   0.5625000   0.5625000   0.0625000  )
        37           Si  tau(  37) = (   0.0625000   0.0625000   0.5625000  )
        38           Si  tau(  38) = (   0.5625000   0.0625000   0.5625000  )
        39           Si  tau(  39) = (   0.0625000   0.5625000   0.5625000  )
        40           Si  tau(  40) = (   0.5625000   0.5625000   0.5625000  )
        41           Si  tau(  41) = (   0.0625000   0.3125000   0.3125000  )
        42           Si  tau(  42) = (   0.5625000   0.3125000   0.3125000  )
        43           Si  tau(  43) = (   0.0625000   0.8125000   0.3125000  )
        44           Si  tau(  44) = (   0.5625000   0.8125000   0.3125000  )
        45           Si  tau(  45) = (   0.0625000   0.3125000   0.8125000  )
        46           Si  tau(  46) = (   0.5625000   0.3125000   0.8125000  )
        47           Si  tau(  47) = (   0.0625000   0.8125000   0.8125000  )
        48           Si  tau(  48) = (   0.5625000   0.8125000   0.8125000  )
        49           Si  tau(  49) = (   0.3125000   0.0625000   0.3125000  )
        50           Si  tau(  50) = (   0.8125000   0.0625000   0.3125000  )
        51           Si  tau(  51) = (   0.3125000   0.5625000   0.3125000  )
        52           Si  tau(  52) = (   0.8125000   0.5625000   0.3125000  )
        53           Si  tau(  53) = (   0.3125000   0.0625000   0.8125000  )
        54           Si  tau(  54) = (   0.8125000   0.0625000   0.8125000  )
        55           Si  tau(  55) = (   0.3125000   0.5625000   0.8125000  )
        56           Si  tau(  56) = (   0.8125000   0.5625000   0.8125000  )
        57           Si  tau(  57) = (   0.3125000   0.3125000   0.0625000  )
        58           Si  tau(  58) = (   0.8125000   0.3125000   0.0625000  )
        59           Si  tau(  59) = (   0.3125000   0.8125000   0.0625000  )
        60           Si  tau(  60) = (   0.8125000   0.8125000   0.0625000  )
        61           Si  tau(  61) = (   0.3125000   0.3125000   0.5625000  )
        62           Si  tau(  62) = (   0.8125000   0.3125000   0.5625000  )
        63           Si  tau(  63) = (   0.3125000   0.8125000   0.5625000  )
        64           Si  tau(  64) = (   0.8125000   0.8125000   0.5625000  )

     number of k points=     4
                       cart. coord. in units 2pi/alat
        k(    1) = (   0.2500000   0.2500000   0.2500000), wk =   0.5000000
        k(    2) = (  -0.2500000  -0.2500000   0.2500000), wk =   0.5000000
        k(    3) = (  -0.2500000   0.2500000  -0.2500000), wk =   0.5000000
        k(    4) = (   0.2500000  -0.2500000  -0.2500000), wk =   0.5000000

     Dense  grid:   697371 G-vectors     FFT dimensions: ( 120, 120, 120)

     Estimated max dynamical RAM per process >       1.08 GB

     Estimated total dynamical RAM >       4.33 GB

     Initial potential from superposition of free atoms

     starting charge  255.96421, renormalised to  256.00000
     Starting wfc are  256 randomized atomic wfcs
     Checking if some PAW data can be deallocated... 

     total cpu time spent up to now is       41.1 secs

     Self-consistent Calculation

     iteration #  1     ecut=    70.00 Ry     beta= 0.70
     Davidson diagonalization with overlap
     ethr =  1.00E-02,  avg # of iterations =  2.0

     Threshold (ethr) on eigenvalues was too large:
     Diagonalizing with lowered threshold

     Davidson diagonalization with overlap
     ethr =  6.98E-04,  avg # of iterations =  1.0

     total cpu time spent up to now is      156.3 secs

     total energy              =   -2990.46245103 Ry
     Harris-Foulkes estimate   =   -2990.88048736 Ry
     estimated scf accuracy    <       1.76668299 Ry

     iteration #  2     ecut=    70.00 Ry     beta= 0.70
     Davidson diagonalization with overlap
     ethr =  6.90E-04,  avg # of iterations =  1.0

     total cpu time spent up to now is      205.1 secs

     total energy              =   -2990.52628048 Ry
     Harris-Foulkes estimate   =   -2990.53059390 Ry
     estimated scf accuracy    <       0.07825310 Ry

     iteration #  3     ecut=    70.00 Ry     beta= 0.70
     Davidson diagonalization with overlap
     ethr =  3.06E-05,  avg # of iterations =  2.8

     total cpu time spent up to now is      262.7 secs

     total energy              =   -2990.53496763 Ry
     Harris-Foulkes estimate   =   -2990.53564664 Ry
     estimated scf accuracy    <       0.00180187 Ry

     iteration #  4     ecut=    70.00 Ry     beta= 0.70
     Davidson diagonalization with overlap
     ethr =  7.04E-07,  avg # of iterations =  3.5

     total cpu time spent up to now is      345.4 secs

     total energy              =   -2990.53552505 Ry
     Harris-Foulkes estimate   =   -2990.53626695 Ry
     estimated scf accuracy    <       0.00208891 Ry

     iteration #  5     ecut=    70.00 Ry     beta= 0.70
     Davidson diagonalization with overlap
     ethr =  7.04E-07,  avg # of iterations =  3.0

     total cpu time spent up to now is      407.0 secs

     total energy              =   -2990.53587959 Ry
     Harris-Foulkes estimate   =   -2990.53595557 Ry
     estimated scf accuracy    <       0.00021999 Ry

     iteration #  6     ecut=    70.00 Ry     beta= 0.70
     Davidson diagonalization with overlap
     ethr =  8.59E-08,  avg # of iterations =  3.0

     total cpu time spent up to now is      471.5 secs

     total energy              =   -2990.53591445 Ry
     Harris-Foulkes estimate   =   -2990.53593627 Ry
     estimated scf accuracy    <       0.00006040 Ry

     iteration #  7     ecut=    70.00 Ry     beta= 0.70
     Davidson diagonalization with overlap
     ethr =  2.36E-08,  avg # of iterations =  2.0

     total cpu time spent up to now is      532.0 secs

     total energy              =   -2990.53592505 Ry
     Harris-Foulkes estimate   =   -2990.53592577 Ry
     estimated scf accuracy    <       0.00000150 Ry

     iteration #  8     ecut=    70.00 Ry     beta= 0.70
     Davidson diagonalization with overlap
     ethr =  5.84E-10,  avg # of iterations =  3.0

     total cpu time spent up to now is      617.9 secs

     total energy              =   -2990.53592600 Ry
     Harris-Foulkes estimate   =   -2990.53592627 Ry
     estimated scf accuracy    <       0.00000046 Ry

     iteration #  9     ecut=    70.00 Ry     beta= 0.70
     Davidson diagonalization with overlap
     ethr =  1.80E-10,  avg # of iterations =  3.0

     total cpu time spent up to now is      679.6 secs

     total energy              =   -2990.53592595 Ry
     Harris-Foulkes estimate   =   -2990.53592611 Ry
     estimated scf accuracy    <       0.00000022 Ry

     iteration # 10     ecut=    70.00 Ry     beta= 0.70
     Davidson diagonalization with overlap
     ethr =  8.72E-11,  avg # of iterations =  2.0

     total cpu time spent up to now is      739.0 secs

     total energy              =   -2990.53592592 Ry
     Harris-Foulkes estimate   =   -2990.53592598 Ry
     estimated scf accuracy    <       0.00000002 Ry

     iteration # 11     ecut=    70.00 Ry     beta= 0.70
     Davidson diagonalization with overlap
     ethr =  9.53E-12,  avg # of iterations =  3.0

     total cpu time spent up to now is      804.9 secs

     total energy              =   -2990.53592593 Ry
     Harris-Foulkes estimate   =   -2990.53592592 Ry
     estimated scf accuracy    <          3.9E-09 Ry

     iteration # 12     ecut=    70.00 Ry     beta= 0.70
     Davidson diagonalization with overlap
     ethr =  1.53E-12,  avg # of iterations =  3.0

     total cpu time spent up to now is      881.2 secs

     total energy              =   -2990.53592593 Ry
     Harris-Foulkes estimate   =   -2990.53592593 Ry
     estimated scf accuracy    <          3.3E-09 Ry

     iteration # 13     ecut=    70.00 Ry     beta= 0.70
     Davidson diagonalization with overlap
     ethr =  1.29E-12,  avg # of iterations =  3.0

     total cpu time spent up to now is      942.8 secs

     End of self-consistent calculation

          k = 0.2500 0.2500 0.2500 ( 87251 PWs)   bands (ev):

    -5.6251  -5.1000  -5.0959  -5.0931  -4.6002  -4.5963  -4.5937  -4.1633
    -4.0673  -4.0628  -4.0600  -3.6545  -3.6502  -3.6470  -3.6448  -3.6442
    -3.6412  -3.4566  -3.4555  -3.4520  -2.9641  -2.9578  -2.9550  -2.5914
    -2.5898  -2.5862  -2.4280  -2.4240  -2.4208  -2.4190  -2.4181  -2.4142
    -0.8864  -0.8823  -0.8780  -0.8758  -0.8747  -0.8733  -0.7832  -0.7814
    -0.7777  -0.6655  -0.6623  -0.6596  -0.5834  -0.5760  -0.5659   0.1271
     0.2033   0.2054   0.2106   0.2114   0.2151   0.2169   1.0811   1.0855
     1.0909   1.4150   1.4185   1.4214   2.0239   2.0275   2.0284   2.0296
     2.0318   2.0332   2.0841   2.0887   2.0913   2.6393   2.6402   2.6419
     2.7382   2.7395   2.7418   2.7430   2.7457   2.7486   2.7930   2.7970
     2.7987   3.1022   3.1053   3.1075   3.1082   3.1093   3.1130   3.3701
     3.3719   3.3727   3.3828   3.3861   3.3885   3.7323   3.7353   3.7372
     3.7553   3.7565   3.7596   3.8369   3.8391   3.8419   4.1071   4.1128
     4.1140   4.1149   4.1160   4.1240   4.1505   4.1534   4.1563   4.4139
     4.4689   4.4707   4.4720   4.7111   4.7136   4.7177   4.7737   4.7790
     4.7871   4.9337   4.9380   5.2388   5.2423   5.2479   5.7209   5.7260

          k =-0.2500-0.2500 0.2500 ( 87251 PWs)   bands (ev):

    -5.6250  -5.0997  -5.0966  -5.0929  -4.5998  -4.5970  -4.5933  -4.1629
    -4.0665  -4.0637  -4.0595  -3.6534  -3.6498  -3.6492  -3.6469  -3.6441
    -3.6397  -3.4577  -3.4543  -3.4529  -2.9622  -2.9591  -2.9533  -2.5922
    -2.5885  -2.5871  -2.4269  -2.4236  -2.4226  -2.4209  -2.4176  -2.4132
    -0.8835  -0.8818  -0.8805  -0.8781  -0.8746  -0.8708  -0.7836  -0.7798
    -0.7779  -0.6649  -0.6613  -0.6591  -0.5856  -0.5765  -0.5685   0.1255
     0.2049   0.2062   0.2100   0.2108   0.2160   0.2184   1.0798   1.0850
     1.0897   1.4153   1.4182   1.4215   2.0246   2.0266   2.0287   2.0300
     2.0307   2.0340   2.0854   2.0875   2.0927   2.6381   2.6401   2.6407
     2.7375   2.7406   2.7424   2.7444   2.7469   2.7482   2.7948   2.7961
     2.8005   3.1023   3.1056   3.1069   3.1076   3.1099   3.1128   3.3707
     3.3721   3.3735   3.3837   3.3858   3.3894   3.7310   3.7344   3.7370
     3.7539   3.7563   3.7573   3.8370   3.8399   3.8424   4.1050   4.1124
     4.1135   4.1144   4.1157   4.1210   4.1506   4.1543   4.1570   4.4122
     4.4700   4.4709   4.4736   4.7113   4.7153   4.7182   4.7712   4.7783
     4.7843   4.9340   4.9386   5.2392   5.2447   5.2485   5.7219   5.7270

          k =-0.2500 0.2500-0.2500 ( 87251 PWs)   bands (ev):

    -5.6251  -5.1011  -5.0966  -5.0912  -4.6012  -4.5971  -4.5918  -4.1635
    -4.0688  -4.0638  -4.0584  -3.6545  -3.6497  -3.6485  -3.6469  -3.6423
    -3.6389  -3.4562  -3.4550  -3.4522  -2.9653  -2.9592  -2.9542  -2.5908
    -2.5897  -2.5867  -2.4280  -2.4240  -2.4221  -2.4208  -2.4167  -2.4118
    -0.8863  -0.8823  -0.8794  -0.8781  -0.8757  -0.8697  -0.7828  -0.7815
    -0.7791  -0.6655  -0.6621  -0.6606  -0.5768  -0.5762  -0.5689   0.1281
     0.2047   0.2057   0.2088   0.2107   0.2113   0.2188   1.0841   1.0864
     1.0892   1.4161   1.4176   1.4211   2.0246   2.0264   2.0284   2.0300
     2.0313   2.0329   2.0849   2.0889   2.0900   2.6402   2.6405   2.6424
     2.7370   2.7392   2.7419   2.7429   2.7456   2.7470   2.7923   2.7954
     2.7995   3.1020   3.1053   3.1070   3.1080   3.1098   3.1137   3.3696
     3.3716   3.3721   3.3831   3.3855   3.3880   3.7330   3.7349   3.7391
     3.7561   3.7569   3.7609   3.8364   3.8386   3.8420   4.1115   4.1129
     4.1140   4.1148   4.1166   4.1232   4.1502   4.1531   4.1567   4.4146
     4.4683   4.4704   4.4711   4.7107   4.7127   4.7170   4.7787   4.7802
     4.7849   4.9341   4.9371   5.2386   5.2411   5.2470   5.7210   5.7246

          k = 0.2500-0.2500-0.2500 ( 87251 PWs)   bands (ev):

    -5.6250  -5.1016  -5.0958  -5.0918  -4.6016  -4.5961  -4.5922  -4.1625
    -4.0687  -4.0628  -4.0584  -3.6552  -3.6521  -3.6470  -3.6454  -3.6443
    -3.6397  -3.4577  -3.4544  -3.4534  -2.9632  -2.9577  -2.9521  -2.5917
    -2.5889  -2.5876  -2.4294  -2.4249  -2.4208  -2.4194  -2.4176  -2.4132
    -0.8876  -0.8810  -0.8780  -0.8769  -0.8742  -0.8708  -0.7827  -0.7799
    -0.7782  -0.6630  -0.6609  -0.6590  -0.5831  -0.5761  -0.5756   0.1244
     0.2027   0.2102   0.2107   0.2127   0.2156   0.2171   1.0816   1.0843
     1.0866   1.4156   1.4189   1.4205   2.0247   2.0265   2.0284   2.0300
     2.0318   2.0330   2.0873   2.0880   2.0920   2.6376   2.6396   2.6401
     2.7391   2.7407   2.7425   2.7436   2.7470   2.7486   2.7942   2.7984
     2.8014   3.1014   3.1053   3.1072   3.1081   3.1098   3.1131   3.3717
     3.3722   3.3732   3.3839   3.3866   3.3897   3.7303   3.7347   3.7361
     3.7523   3.7555   3.7566   3.8372   3.8409   3.8424   4.1054   4.1113
     4.1134   4.1145   4.1154   4.1168   4.1511   4.1557   4.1570   4.4106
     4.4711   4.4718   4.4739   4.7119   4.7162   4.7183   4.7731   4.7775
     4.7787   4.9352   4.9384   5.2402   5.2462   5.2485   5.7235   5.7269

     highest occupied level (ev):     5.7270

!    total energy              =   -2990.53592593 Ry
     Harris-Foulkes estimate   =   -2990.53592593 Ry
     estimated scf accuracy    <          8.8E-10 Ry

     total all-electron energy =    -37124.671479 Ry

     The total energy is the sum of the following terms:

     one-electron contribution =     178.60338554 Ry
     hartree contribution      =      35.70211367 Ry
     xc contribution           =    -391.44049971 Ry
     ewald contribution        =    -534.00591588 Ry
     one-center paw contrib.   =   -2279.39500955 Ry

     convergence has been achieved in  13 iterations

     Forces acting on atoms (cartesian axes, Ry/au):

     atom    1 type  1   force =    -0.01588206   -0.00003905    0.00000018
     atom    2 type  1   force =     0.01126048    0.01123807   -0.00060744
     atom    3 type  1   force =     0.00005950    0.00000528    0.00000116
     atom    4 type  1   force =    -0.00004582   -0.00001489    0.00000104
     atom    5 type  1   force =     0.00005951    0.00033487   -0.00000048
     atom    6 type  1   force =    -0.00004586   -0.00003913   -0.00000040
     atom    7 type  1   force =    -0.00049195   -0.00001658   -0.00000043
     atom    8 type  1   force =     0.00035931    0.00000533   -0.00000071
     atom    9 type  1   force =    -0.00052202    0.00007678    0.00016037
     atom   10 type  1   force =     0.00044979   -0.00023489   -0.00023442
     atom   11 type  1   force =    -0.00051659    0.00007344   -0.00015792
     atom   12 type  1   force =     0.00045123   -0.00023597    0.00022975
     atom   13 type  1   force =    -0.00052978   -0.00013290    0.00004961
     atom   14 type  1   force =     0.00029291   -0.00009931    0.00009330
     atom   15 type  1   force =    -0.00053528   -0.00013708   -0.00005217
     atom   16 type  1   force =     0.00029193   -0.00009391   -0.00009294
     atom   17 type  1   force =    -0.00001413    0.00034080    0.00046660
     atom   18 type  1   force =    -0.00000654    0.00033614   -0.00047666
     atom   19 type  1   force =     0.00000616   -0.00000202   -0.00012542
     atom   20 type  1   force =     0.00000524   -0.00000244    0.00012280
     atom   21 type  1   force =     0.00014613    0.00040222   -0.00031130
     atom   22 type  1   force =     0.00014854    0.00040591    0.00031635
     atom   23 type  1   force =     0.00001896    0.00000288    0.00013887
     atom   24 type  1   force =     0.00001897    0.00000395   -0.00013612
     atom   25 type  1   force =     0.00022731    0.00022457   -0.00011142
     atom   26 type  1   force =    -0.00009780   -0.00056849    0.00004669
     atom   27 type  1   force =    -0.00009026   -0.00054881   -0.00004545
     atom   28 type  1   force =     0.00023495    0.00022911    0.00011231
     atom   29 type  1   force =    -0.00004114   -0.00016170   -0.00000999
     atom   30 type  1   force =     0.00006646    0.00010028    0.00000303
     atom   31 type  1   force =     0.00006654    0.00010169   -0.00000461
     atom   32 type  1   force =    -0.00004232   -0.00015968    0.00000882
     atom   33 type  1   force =    -0.00022087   -0.00000770   -0.00000797
     atom   34 type  1   force =     0.00024919    0.00002177   -0.00001687
     atom   35 type  1   force =     0.00003243    0.00003285   -0.00003015
     atom   36 type  1   force =    -0.00010002   -0.00014938   -0.00000075
     atom   37 type  1   force =     0.00004118    0.00000746   -0.00003551
     atom   38 type  1   force =    -0.00009963   -0.00000011    0.00001082
     atom   39 type  1   force =    -0.00438872   -0.00433813   -0.00336712
     atom   40 type  1   force =     0.00391077    0.00271931    0.00264203
     atom   41 type  1   force =    -0.00094582   -0.00091664    0.00000664
     atom   42 type  1   force =     0.00396495   -0.00263480   -0.00271316
     atom   43 type  1   force =     0.00009454    0.00001157   -0.00001760
     atom   44 type  1   force =    -0.00006171   -0.00003910   -0.00004923
     atom   45 type  1   force =     0.00010203    0.00005307   -0.00002635
     atom   46 type  1   force =    -0.00006074   -0.00021078   -0.00004033
     atom   47 type  1   force =    -0.00018159   -0.00002966   -0.00002982
     atom   48 type  1   force =     0.00029276    0.00001028   -0.00002842
     atom   49 type  1   force =    -0.00005973   -0.00003802    0.00005230
     atom   50 type  1   force =     0.00009744    0.00000988    0.00001994
     atom   51 type  1   force =     0.00384688   -0.00241375    0.00249105
     atom   52 type  1   force =    -0.00089084   -0.00097110    0.00008264
     atom   53 type  1   force =     0.00029020    0.00000952    0.00002728
     atom   54 type  1   force =    -0.00018235   -0.00003054    0.00002917
     atom   55 type  1   force =    -0.00005768   -0.00021168    0.00003867
     atom   56 type  1   force =     0.00010780    0.00004696    0.00002528
     atom   57 type  1   force =    -0.00009709   -0.00014859   -0.00000113
     atom   58 type  1   force =     0.00003361    0.00003441    0.00002625
     atom   59 type  1   force =     0.00024567    0.00002147    0.00001532
     atom   60 type  1   force =    -0.00022178   -0.00000688    0.00000539
     atom   61 type  1   force =     0.00379310    0.00249663   -0.00241839
     atom   62 type  1   force =    -0.00478484   -0.00473439    0.00390496
     atom   63 type  1   force =    -0.00009432    0.00000240   -0.00001256
     atom   64 type  1   force =     0.00004280    0.00000920    0.00003463

     Total force =     0.027160     Total SCF correction =     0.000060


     Computing stress (Cartesian axis) and pressure

          total   stress  (Ry/bohr**3)                   (kbar)     P=    0.12
   0.00000067   0.00000009  -0.00000169          0.10      0.01     -0.25
   0.00000009   0.00000082   0.00000070          0.01      0.12      0.10
  -0.00000169   0.00000070   0.00000089         -0.25      0.10      0.13


     init_run     :     40.17s CPU     41.00s WALL (       1 calls)
     electrons    :    880.82s CPU    901.68s WALL (       1 calls)
     forces       :     11.62s CPU     11.84s WALL (       1 calls)
     stress       :     56.52s CPU     56.72s WALL (       1 calls)

     Called by init_run:
     wfcinit      :     37.12s CPU     37.84s WALL (       1 calls)
     potinit      :      1.06s CPU      1.09s WALL (       1 calls)

     Called by electrons:
     c_bands      :    731.75s CPU    749.21s WALL (      14 calls)
     sum_band     :    132.48s CPU    134.93s WALL (      14 calls)
     v_of_rho     :      5.41s CPU      5.56s WALL (      14 calls)
     newd         :      2.88s CPU      3.73s WALL (      14 calls)
     PAW_pot      :      8.11s CPU      8.10s WALL (      14 calls)
     mix_rho      :      1.23s CPU      1.25s WALL (      14 calls)

     Called by c_bands:
     init_us_2    :      7.85s CPU      7.87s WALL (     124 calls)
     cegterg      :    716.99s CPU    734.39s WALL (      56 calls)

     Called by sum_band:
     sum_band:bec :      0.01s CPU      0.02s WALL (      56 calls)
     addusdens    :      3.56s CPU      4.34s WALL (      14 calls)

     Called by *egterg:
     h_psi        :    637.04s CPU    648.07s WALL (     201 calls)
     s_psi        :     36.92s CPU     36.93s WALL (     201 calls)
     g_psi        :      1.29s CPU      1.31s WALL (     141 calls)
     cdiaghg      :      4.62s CPU      4.59s WALL (     193 calls)

     Called by h_psi:
     h_psi:pot    :    632.94s CPU    643.90s WALL (     201 calls)
     h_psi:calbec :     36.59s CPU     36.60s WALL (     201 calls)
     vloc_psi     :    559.57s CPU    570.53s WALL (     201 calls)
     add_vuspsi   :     36.78s CPU     36.78s WALL (     201 calls)

     General routines
     calbec       :     53.74s CPU     53.77s WALL (     277 calls)
     fft          :      4.53s CPU      4.81s WALL (     209 calls)
     fftw         :    565.42s CPU    577.55s WALL (   49042 calls)

     Parallel routines
     fft_scatt_xy :     95.35s CPU     95.53s WALL (   49251 calls)
     fft_scatt_yz :    104.24s CPU    111.09s WALL (   49251 calls)

     PWSCF        : 16m29.24s CPU    16m51.38s WALL


   This run was terminated on:  15:20: 3  24Oct2021            

=------------------------------------------------------------------------------=
   JOB DONE.
=------------------------------------------------------------------------------=
Note: The following floating-point exceptions are signalling: IEEE_UNDERFLOW_FLAG IEEE_DENORMAL
