
     Program PWSCF v.6.2 (svn rev. 13949:13950) starts on 25Oct2021 at 15: 3:42 

     This program is part of the open-source Quantum ESPRESSO suite
     for quantum simulation of materials; please cite
         "P. Giannozzi et al., J. Phys.:Condens. Matter 21 395502 (2009);
         "P. Giannozzi et al., J. Phys.:Condens. Matter 29 465901 (2017);
          URL http://www.quantum-espresso.org", 
     in publications or presentations arising from this work. More details at
     http://www.quantum-espresso.org/quote

     Parallel version (MPI), running on     4 processors

     MPI processes distributed on     1 nodes
     R & G space division:  proc/nbgrp/npool/nimage =       4
     Reading input from headeradd_supercell-00096.in

     Current dimensions of program PWSCF are:
     Max number of different atomic species (ntypx) = 10
     Max number of k-points (npk) =  40000
     Max angular momentum in pseudopotentials (lmaxx) =  3
     Message from routine iosys:
     minimal I/O required, wf_collect reset to FALSE
               file Si.pbe-n-kjpaw_psl.0.1.UPF: wavefunction(s)  3S renormalized

     Subspace diagonalization in iterative solution of the eigenvalue problem:
     a serial algorithm will be used


     Parallelization info
     --------------------
     sticks:   dense  smooth     PW     G-vecs:    dense   smooth      PW
     Min        2372    2372    612               174341   174341   22844
     Max        2374    2374    613               174344   174344   22847
     Sum        9493    9493   2449               697371   697371   91383



     bravais-lattice index     =            0
     lattice parameter (alat)  =      20.6591  a.u.
     unit-cell volume          =    8817.2783 (a.u.)^3
     number of atoms/cell      =           64
     number of atomic types    =            1
     number of electrons       =       256.00
     number of Kohn-Sham states=          128
     kinetic-energy cutoff     =      70.0000  Ry
     charge density cutoff     =     280.0000  Ry
     convergence threshold     =      1.0E-09
     mixing beta               =       0.7000
     number of iterations used =            8  plain     mixing
     Exchange-correlation      =  SLA  PW   PBX  PBC ( 1  4  3  4 0 0)

     celldm(1)=  20.659106  celldm(2)=   0.000000  celldm(3)=   0.000000
     celldm(4)=   0.000000  celldm(5)=   0.000000  celldm(6)=   0.000000

     crystal axes: (cart. coord. in units of alat)
               a(1) = (   1.000000   0.000000   0.000000 )  
               a(2) = (   0.000000   1.000000   0.000000 )  
               a(3) = (   0.000000   0.000000   1.000000 )  

     reciprocal axes: (cart. coord. in units 2 pi/alat)
               b(1) = (  1.000000  0.000000  0.000000 )  
               b(2) = (  0.000000  1.000000  0.000000 )  
               b(3) = (  0.000000  0.000000  1.000000 )  


     PseudoPot. # 1 for Si read from file:
     /home/uezono/pseudo/Si.pbe-n-kjpaw_psl.0.1.UPF
     MD5 check sum: 0810ef13ebffcf5dbabd57b297315270
     Pseudo is Projector augmented-wave + core cor, Zval =  4.0
     Generated using "atomic" code by A. Dal Corso  v.5.0.2 svn rev. 9415
     Shape of augmentation charge: PSQ
     Using radial grid of 1141 points,  4 beta functions with: 
                l(1) =   0
                l(2) =   0
                l(3) =   1
                l(4) =   1
     Q(r) pseudized with 0 coefficients 


     atomic species   valence    mass     pseudopotential
        Si             4.00    28.08550     Si( 1.00)

      2 Sym. Ops. (no inversion) found ( 1 have fractional translation)



   Cartesian axes

     site n.     atom                  positions (alat units)
         1           Si  tau(   1) = (   0.4404043   0.4375000   0.4375000  )
         2           Si  tau(   2) = (   0.9375000   0.4375000   0.4375000  )
         3           Si  tau(   3) = (   0.4375000   0.9375000   0.4375000  )
         4           Si  tau(   4) = (   0.9375000   0.9375000   0.4375000  )
         5           Si  tau(   5) = (   0.4375000   0.4375000   0.9375000  )
         6           Si  tau(   6) = (   0.9375000   0.4375000   0.9375000  )
         7           Si  tau(   7) = (   0.4375000   0.9375000   0.9375000  )
         8           Si  tau(   8) = (   0.9375000   0.9375000   0.9375000  )
         9           Si  tau(   9) = (   0.4375000   0.1875000   0.1875000  )
        10           Si  tau(  10) = (   0.9375000   0.1875000   0.1875000  )
        11           Si  tau(  11) = (   0.4375000   0.6875000   0.1875000  )
        12           Si  tau(  12) = (   0.9375000   0.6875000   0.1875000  )
        13           Si  tau(  13) = (   0.4375000   0.1875000   0.6875000  )
        14           Si  tau(  14) = (   0.9375000   0.1875000   0.6875000  )
        15           Si  tau(  15) = (   0.4375000   0.6875000   0.6875000  )
        16           Si  tau(  16) = (   0.9375000   0.6875000   0.6875000  )
        17           Si  tau(  17) = (   0.1875000   0.4375000   0.1875000  )
        18           Si  tau(  18) = (   0.6875000   0.4375000   0.1875000  )
        19           Si  tau(  19) = (   0.1875000   0.9375000   0.1875000  )
        20           Si  tau(  20) = (   0.6875000   0.9375000   0.1875000  )
        21           Si  tau(  21) = (   0.1875000   0.4375000   0.6875000  )
        22           Si  tau(  22) = (   0.6875000   0.4375000   0.6875000  )
        23           Si  tau(  23) = (   0.1875000   0.9375000   0.6875000  )
        24           Si  tau(  24) = (   0.6875000   0.9375000   0.6875000  )
        25           Si  tau(  25) = (   0.1875000   0.1875000   0.4375000  )
        26           Si  tau(  26) = (   0.6875000   0.1875000   0.4375000  )
        27           Si  tau(  27) = (   0.1875000   0.6875000   0.4375000  )
        28           Si  tau(  28) = (   0.6875000   0.6875000   0.4375000  )
        29           Si  tau(  29) = (   0.1875000   0.1875000   0.9375000  )
        30           Si  tau(  30) = (   0.6875000   0.1875000   0.9375000  )
        31           Si  tau(  31) = (   0.1875000   0.6875000   0.9375000  )
        32           Si  tau(  32) = (   0.6875000   0.6875000   0.9375000  )
        33           Si  tau(  33) = (   0.0625000   0.0625000   0.0625000  )
        34           Si  tau(  34) = (   0.5625000   0.0625000   0.0625000  )
        35           Si  tau(  35) = (   0.0625000   0.5625000   0.0625000  )
        36           Si  tau(  36) = (   0.5625000   0.5625000   0.0625000  )
        37           Si  tau(  37) = (   0.0625000   0.0625000   0.5625000  )
        38           Si  tau(  38) = (   0.5625000   0.0625000   0.5625000  )
        39           Si  tau(  39) = (   0.0625000   0.5625000   0.5625000  )
        40           Si  tau(  40) = (   0.5625000   0.5625000   0.5625000  )
        41           Si  tau(  41) = (   0.0625000   0.3125000   0.3125000  )
        42           Si  tau(  42) = (   0.5625000   0.3125000   0.3125000  )
        43           Si  tau(  43) = (   0.0625000   0.8125000   0.3125000  )
        44           Si  tau(  44) = (   0.5625000   0.8125000   0.3125000  )
        45           Si  tau(  45) = (   0.0625000   0.3125000   0.8125000  )
        46           Si  tau(  46) = (   0.5625000   0.3125000   0.8125000  )
        47           Si  tau(  47) = (   0.0625000   0.8125000   0.8125000  )
        48           Si  tau(  48) = (   0.5625000   0.8125000   0.8125000  )
        49           Si  tau(  49) = (   0.3125000   0.0625000   0.3125000  )
        50           Si  tau(  50) = (   0.8125000   0.0625000   0.3125000  )
        51           Si  tau(  51) = (   0.3125000   0.5654043   0.3125000  )
        52           Si  tau(  52) = (   0.8125000   0.5625000   0.3125000  )
        53           Si  tau(  53) = (   0.3125000   0.0625000   0.8125000  )
        54           Si  tau(  54) = (   0.8125000   0.0625000   0.8125000  )
        55           Si  tau(  55) = (   0.3125000   0.5625000   0.8125000  )
        56           Si  tau(  56) = (   0.8125000   0.5625000   0.8125000  )
        57           Si  tau(  57) = (   0.3125000   0.3125000   0.0625000  )
        58           Si  tau(  58) = (   0.8125000   0.3125000   0.0625000  )
        59           Si  tau(  59) = (   0.3125000   0.8125000   0.0625000  )
        60           Si  tau(  60) = (   0.8125000   0.8125000   0.0625000  )
        61           Si  tau(  61) = (   0.3125000   0.3125000   0.5625000  )
        62           Si  tau(  62) = (   0.8125000   0.3125000   0.5625000  )
        63           Si  tau(  63) = (   0.3125000   0.8125000   0.5625000  )
        64           Si  tau(  64) = (   0.8125000   0.8125000   0.5625000  )

     number of k points=     3
                       cart. coord. in units 2pi/alat
        k(    1) = (   0.2500000   0.2500000   0.2500000), wk =   1.0000000
        k(    2) = (  -0.2500000   0.2500000  -0.2500000), wk =   0.5000000
        k(    3) = (   0.2500000  -0.2500000  -0.2500000), wk =   0.5000000

     Dense  grid:   697371 G-vectors     FFT dimensions: ( 120, 120, 120)

     Estimated max dynamical RAM per process >       1.04 GB

     Estimated total dynamical RAM >       4.16 GB

     Initial potential from superposition of free atoms

     starting charge  255.96421, renormalised to  256.00000
     Starting wfc are  256 randomized atomic wfcs
     Checking if some PAW data can be deallocated... 

     total cpu time spent up to now is       31.7 secs

     Self-consistent Calculation

     iteration #  1     ecut=    70.00 Ry     beta= 0.70
     Davidson diagonalization with overlap
     ethr =  1.00E-02,  avg # of iterations =  2.0

     Threshold (ethr) on eigenvalues was too large:
     Diagonalizing with lowered threshold

     Davidson diagonalization with overlap
     ethr =  6.98E-04,  avg # of iterations =  1.0

     total cpu time spent up to now is      118.4 secs

     total energy              =   -2990.46233479 Ry
     Harris-Foulkes estimate   =   -2990.87977462 Ry
     estimated scf accuracy    <       1.76631655 Ry

     iteration #  2     ecut=    70.00 Ry     beta= 0.70
     Davidson diagonalization with overlap
     ethr =  6.90E-04,  avg # of iterations =  1.0

     total cpu time spent up to now is      155.4 secs

     total energy              =   -2990.52613542 Ry
     Harris-Foulkes estimate   =   -2990.53041251 Ry
     estimated scf accuracy    <       0.07829127 Ry

     iteration #  3     ecut=    70.00 Ry     beta= 0.70
     Davidson diagonalization with overlap
     ethr =  3.06E-05,  avg # of iterations =  2.7

     total cpu time spent up to now is      198.9 secs

     total energy              =   -2990.53485744 Ry
     Harris-Foulkes estimate   =   -2990.53549777 Ry
     estimated scf accuracy    <       0.00175827 Ry

     iteration #  4     ecut=    70.00 Ry     beta= 0.70
     Davidson diagonalization with overlap
     ethr =  6.87E-07,  avg # of iterations =  3.0

     total cpu time spent up to now is      258.7 secs

     total energy              =   -2990.53556603 Ry
     Harris-Foulkes estimate   =   -2990.53597061 Ry
     estimated scf accuracy    <       0.00100151 Ry

     iteration #  5     ecut=    70.00 Ry     beta= 0.70
     Davidson diagonalization with overlap
     ethr =  3.91E-07,  avg # of iterations =  3.0

     total cpu time spent up to now is      306.5 secs

     total energy              =   -2990.53575466 Ry
     Harris-Foulkes estimate   =   -2990.53580168 Ry
     estimated scf accuracy    <       0.00012114 Ry

     iteration #  6     ecut=    70.00 Ry     beta= 0.70
     Davidson diagonalization with overlap
     ethr =  4.73E-08,  avg # of iterations =  3.0

     total cpu time spent up to now is      357.7 secs

     total energy              =   -2990.53577222 Ry
     Harris-Foulkes estimate   =   -2990.53579709 Ry
     estimated scf accuracy    <       0.00008048 Ry

     iteration #  7     ecut=    70.00 Ry     beta= 0.70
     Davidson diagonalization with overlap
     ethr =  3.14E-08,  avg # of iterations =  2.0

     total cpu time spent up to now is      402.6 secs

     total energy              =   -2990.53578411 Ry
     Harris-Foulkes estimate   =   -2990.53578458 Ry
     estimated scf accuracy    <       0.00000094 Ry

     iteration #  8     ecut=    70.00 Ry     beta= 0.70
     Davidson diagonalization with overlap
     ethr =  3.66E-10,  avg # of iterations =  3.0

     total cpu time spent up to now is      469.6 secs

     total energy              =   -2990.53578486 Ry
     Harris-Foulkes estimate   =   -2990.53578511 Ry
     estimated scf accuracy    <       0.00000031 Ry

     iteration #  9     ecut=    70.00 Ry     beta= 0.70
     Davidson diagonalization with overlap
     ethr =  1.20E-10,  avg # of iterations =  2.7

     total cpu time spent up to now is      516.5 secs

     total energy              =   -2990.53578481 Ry
     Harris-Foulkes estimate   =   -2990.53578492 Ry
     estimated scf accuracy    <       0.00000012 Ry

     iteration # 10     ecut=    70.00 Ry     beta= 0.70
     Davidson diagonalization with overlap
     ethr =  4.78E-11,  avg # of iterations =  3.0

     total cpu time spent up to now is      563.6 secs

     total energy              =   -2990.53578480 Ry
     Harris-Foulkes estimate   =   -2990.53578484 Ry
     estimated scf accuracy    <       0.00000002 Ry

     iteration # 11     ecut=    70.00 Ry     beta= 0.70
     Davidson diagonalization with overlap
     ethr =  9.65E-12,  avg # of iterations =  3.0

     total cpu time spent up to now is      611.0 secs

     total energy              =   -2990.53578480 Ry
     Harris-Foulkes estimate   =   -2990.53578480 Ry
     estimated scf accuracy    <          2.8E-09 Ry

     iteration # 12     ecut=    70.00 Ry     beta= 0.70
     Davidson diagonalization with overlap
     ethr =  1.09E-12,  avg # of iterations =  3.0

     total cpu time spent up to now is      668.0 secs

     total energy              =   -2990.53578481 Ry
     Harris-Foulkes estimate   =   -2990.53578481 Ry
     estimated scf accuracy    <          1.3E-09 Ry

     iteration # 13     ecut=    70.00 Ry     beta= 0.70
     Davidson diagonalization with overlap
     ethr =  5.01E-13,  avg # of iterations =  2.3

     total cpu time spent up to now is      715.6 secs

     End of self-consistent calculation

          k = 0.2500 0.2500 0.2500 ( 87251 PWs)   bands (ev):

    -5.6251  -5.0989  -5.0970  -5.0932  -4.5992  -4.5974  -4.5937  -4.1631
    -4.0660  -4.0642  -4.0600  -3.6559  -3.6495  -3.6472  -3.6470  -3.6454
    -3.6377  -3.4593  -3.4548  -3.4503  -2.9614  -2.9602  -2.9542  -2.5945
    -2.5892  -2.5843  -2.4293  -2.4239  -2.4210  -2.4205  -2.4189  -2.4111
    -0.8884  -0.8819  -0.8783  -0.8780  -0.8757  -0.8683  -0.7856  -0.7805
    -0.7750  -0.6678  -0.6624  -0.6561  -0.5807  -0.5771  -0.5703   0.1262
     0.2015   0.2063   0.2099   0.2106   0.2139   0.2223   1.0806   1.0847
     1.0907   1.4142   1.4181   1.4226   2.0246   2.0271   2.0280   2.0292
     2.0319   2.0337   2.0854   2.0878   2.0917   2.6371   2.6402   2.6429
     2.7382   2.7395   2.7415   2.7437   2.7463   2.7490   2.7919   2.7966
     2.8014   3.1025   3.1050   3.1068   3.1071   3.1093   3.1146   3.3695
     3.3713   3.3738   3.3822   3.3865   3.3904   3.7317   3.7349   3.7370
     3.7520   3.7561   3.7615   3.8365   3.8389   3.8432   4.1073   4.1121
     4.1131   4.1142   4.1155   4.1227   4.1502   4.1529   4.1584   4.4129
     4.4675   4.4708   4.4747   4.7108   4.7138   4.7185   4.7748   4.7782
     4.7837   4.9319   4.9406   5.2386   5.2428   5.2493   5.7191   5.7289

          k =-0.2500 0.2500-0.2500 ( 87251 PWs)   bands (ev):

    -5.6251  -5.0997  -5.0973  -5.0918  -4.6002  -4.5977  -4.5925  -4.1643
    -4.0675  -4.0644  -4.0593  -3.6532  -3.6499  -3.6482  -3.6479  -3.6461
    -3.6345  -3.4577  -3.4554  -3.4493  -2.9656  -2.9598  -2.9561  -2.5926
    -2.5909  -2.5834  -2.4260  -2.4238  -2.4224  -2.4219  -2.4196  -2.4091
    -0.8852  -0.8811  -0.8806  -0.8790  -0.8758  -0.8715  -0.7856  -0.7830
    -0.7753  -0.6683  -0.6632  -0.6602  -0.5778  -0.5765  -0.5609   0.1300
     0.2011   0.2064   0.2080   0.2099   0.2121   0.2181   1.0827   1.0852
     1.0953   1.4151   1.4177   1.4219   2.0246   2.0264   2.0290   2.0295
     2.0316   2.0329   2.0839   2.0871   2.0903   2.6399   2.6407   2.6454
     2.7355   2.7371   2.7420   2.7433   2.7461   2.7468   2.7919   2.7930
     2.7979   3.1025   3.1058   3.1070   3.1081   3.1082   3.1148   3.3684
     3.3709   3.3716   3.3820   3.3853   3.3881   3.7338   3.7350   3.7398
     3.7562   3.7570   3.7663   3.8358   3.8391   3.8402   4.1120   4.1130
     4.1134   4.1168   4.1169   4.1293   4.1497   4.1530   4.1547   4.4172
     4.4659   4.4696   4.4703   4.7093   4.7139   4.7142   4.7789   4.7796
     4.7930   4.9324   4.9376   5.2367   5.2427   5.2429   5.7188   5.7243

          k = 0.2500-0.2500-0.2500 ( 87251 PWs)   bands (ev):

    -5.6250  -5.0996  -5.0968  -5.0930  -4.5995  -4.5972  -4.5935  -4.1622
    -4.0665  -4.0635  -4.0590  -3.6555  -3.6512  -3.6471  -3.6465  -3.6439
    -3.6414  -3.4601  -3.4545  -3.4520  -2.9606  -2.9578  -2.9519  -2.5956
    -2.5877  -2.5857  -2.4294  -2.4233  -2.4210  -2.4206  -2.4168  -2.4155
    -0.8883  -0.8796  -0.8780  -0.8776  -0.8731  -0.8709  -0.7852  -0.7777
    -0.7756  -0.6643  -0.6617  -0.6553  -0.5881  -0.5771  -0.5758   0.1225
     0.2033   0.2095   0.2104   0.2109   0.2180   0.2216   1.0762   1.0849
     1.0877   1.4147   1.4189   1.4215   2.0239   2.0265   2.0292   2.0298
     2.0313   2.0350   2.0862   2.0897   2.0920   2.6353   2.6388   2.6403
     2.7393   2.7415   2.7427   2.7443   2.7469   2.7516   2.7938   2.8001
     2.8023   3.1023   3.1046   3.1069   3.1075   3.1090   3.1140   3.3711
     3.3724   3.3750   3.3841   3.3879   3.3906   3.7304   3.7319   3.7355
     3.7497   3.7538   3.7565   3.8387   3.8397   3.8437   4.1036   4.1072
     4.1130   4.1140   4.1151   4.1158   4.1527   4.1538   4.1584   4.4088
     4.4710   4.4719   4.4770   4.7141   4.7150   4.7204   4.7676   4.7766
     4.7781   4.9349   4.9399   5.2431   5.2441   5.2516   5.7234   5.7293

     highest occupied level (ev):     5.7293

!    total energy              =   -2990.53578481 Ry
     Harris-Foulkes estimate   =   -2990.53578481 Ry
     estimated scf accuracy    <          1.9E-10 Ry

     total all-electron energy =    -37124.671338 Ry

     The total energy is the sum of the following terms:

     one-electron contribution =     178.60235340 Ry
     hartree contribution      =      35.70258501 Ry
     xc contribution           =    -391.44068053 Ry
     ewald contribution        =    -534.00497285 Ry
     one-center paw contrib.   =   -2279.39506983 Ry

     convergence has been achieved in  13 iterations

     Forces acting on atoms (cartesian axes, Ry/au):

     atom    1 type  1   force =    -0.01813559    0.00359478   -0.00219071
     atom    2 type  1   force =    -0.00001544   -0.00005844   -0.00005119
     atom    3 type  1   force =     0.00001707   -0.00001297   -0.00003843
     atom    4 type  1   force =    -0.00003394    0.00002742   -0.00002780
     atom    5 type  1   force =     0.00000290   -0.00005974   -0.00003751
     atom    6 type  1   force =    -0.00003404    0.00025225   -0.00002759
     atom    7 type  1   force =    -0.00050383    0.00002846   -0.00002694
     atom    8 type  1   force =    -0.00000690   -0.00002168   -0.00003111
     atom    9 type  1   force =    -0.00048985    0.00010047    0.00007563
     atom   10 type  1   force =     0.00002339    0.00003516   -0.00001735
     atom   11 type  1   force =     0.00218111    0.00404261   -0.00280833
     atom   12 type  1   force =     0.00003890   -0.00005084   -0.00005972
     atom   13 type  1   force =    -0.00049751   -0.00008211    0.00008396
     atom   14 type  1   force =     0.00003119   -0.00003181   -0.00002161
     atom   15 type  1   force =    -0.00047943   -0.00017543   -0.00015371
     atom   16 type  1   force =     0.00002675    0.00024654   -0.00003767
     atom   17 type  1   force =     0.00271292    0.00370388    0.00271571
     atom   18 type  1   force =     0.00027503   -0.00017300   -0.00018054
     atom   19 type  1   force =     0.00008054   -0.00002251   -0.00003932
     atom   20 type  1   force =     0.00006857    0.00001809    0.00010471
     atom   21 type  1   force =     0.00028283    0.00005070   -0.00019056
     atom   22 type  1   force =     0.00026551    0.00036488    0.00026180
     atom   23 type  1   force =     0.00007061    0.00003728    0.00010368
     atom   24 type  1   force =     0.00007356   -0.00001218   -0.00004560
     atom   25 type  1   force =     0.00019300    0.00021495   -0.00007067
     atom   26 type  1   force =     0.00021202   -0.00020749   -0.00008523
     atom   27 type  1   force =    -0.00247295    0.00370198    0.00281848
     atom   28 type  1   force =     0.00019865    0.00017108    0.00016342
     atom   29 type  1   force =     0.00001537   -0.00005134    0.00001526
     atom   30 type  1   force =     0.00001105    0.00005433    0.00002182
     atom   31 type  1   force =    -0.00000891    0.00001712    0.00004797
     atom   32 type  1   force =     0.00001419    0.00018077    0.00003803
     atom   33 type  1   force =    -0.00003181    0.00003119    0.00002161
     atom   34 type  1   force =     0.00024654    0.00002675    0.00003767
     atom   35 type  1   force =    -0.00008211   -0.00049751   -0.00008396
     atom   36 type  1   force =    -0.00017543   -0.00047943    0.00015371
     atom   37 type  1   force =     0.00003516    0.00002339    0.00001735
     atom   38 type  1   force =    -0.00005084    0.00003890    0.00005972
     atom   39 type  1   force =     0.00010047   -0.00048985   -0.00007563
     atom   40 type  1   force =     0.00404261    0.00218111    0.00280833
     atom   41 type  1   force =     0.00021495    0.00019300    0.00007067
     atom   42 type  1   force =     0.00370198   -0.00247295   -0.00281848
     atom   43 type  1   force =    -0.00020749    0.00021202    0.00008523
     atom   44 type  1   force =     0.00017108    0.00019865   -0.00016342
     atom   45 type  1   force =    -0.00005134    0.00001537   -0.00001526
     atom   46 type  1   force =     0.00001712   -0.00000891   -0.00004797
     atom   47 type  1   force =     0.00005433    0.00001105   -0.00002182
     atom   48 type  1   force =     0.00018077    0.00001419   -0.00003803
     atom   49 type  1   force =    -0.00005844   -0.00001544    0.00005119
     atom   50 type  1   force =     0.00002742   -0.00003394    0.00002780
     atom   51 type  1   force =     0.00359478   -0.01813559    0.00219071
     atom   52 type  1   force =    -0.00001297    0.00001707    0.00003843
     atom   53 type  1   force =     0.00025225   -0.00003404    0.00002759
     atom   54 type  1   force =    -0.00002168   -0.00000690    0.00003111
     atom   55 type  1   force =    -0.00005974    0.00000290    0.00003751
     atom   56 type  1   force =     0.00002846   -0.00050383    0.00002694
     atom   57 type  1   force =     0.00005070    0.00028283    0.00019056
     atom   58 type  1   force =     0.00003728    0.00007061   -0.00010368
     atom   59 type  1   force =     0.00036488    0.00026551   -0.00026180
     atom   60 type  1   force =    -0.00001218    0.00007356    0.00004560
     atom   61 type  1   force =     0.00370388    0.00271292   -0.00271571
     atom   62 type  1   force =    -0.00002251    0.00008054    0.00003932
     atom   63 type  1   force =    -0.00017300    0.00027503    0.00018054
     atom   64 type  1   force =     0.00001809    0.00006857   -0.00010471

     Total force =     0.029460     Total SCF correction =     0.000025


     Computing stress (Cartesian axis) and pressure

          total   stress  (Ry/bohr**3)                   (kbar)     P=    0.13
   0.00000079  -0.00000004  -0.00000231          0.12     -0.01     -0.34
  -0.00000004   0.00000079   0.00000231         -0.01      0.12      0.34
  -0.00000231   0.00000231   0.00000097         -0.34      0.34      0.14


     init_run     :     31.09s CPU     31.65s WALL (       1 calls)
     electrons    :    668.92s CPU    683.82s WALL (       1 calls)
     forces       :     10.37s CPU     10.57s WALL (       1 calls)
     stress       :     44.54s CPU     44.83s WALL (       1 calls)

     Called by init_run:
     wfcinit      :     27.96s CPU     28.43s WALL (       1 calls)
     potinit      :      1.07s CPU      1.09s WALL (       1 calls)

     Called by electrons:
     c_bands      :    551.38s CPU    563.43s WALL (      14 calls)
     sum_band     :    100.86s CPU    102.81s WALL (      14 calls)
     v_of_rho     :      5.44s CPU      5.58s WALL (      14 calls)
     newd         :      2.94s CPU      3.73s WALL (      14 calls)
     PAW_pot      :      8.12s CPU      8.12s WALL (      14 calls)
     mix_rho      :      1.22s CPU      1.26s WALL (      14 calls)

     Called by c_bands:
     init_us_2    :      5.62s CPU      5.67s WALL (      93 calls)
     cegterg      :    540.31s CPU    552.30s WALL (      42 calls)

     Called by sum_band:
     sum_band:bec :      0.01s CPU      0.01s WALL (      42 calls)
     addusdens    :      3.55s CPU      4.37s WALL (      14 calls)

     Called by *egterg:
     h_psi        :    480.29s CPU    487.59s WALL (     149 calls)
     s_psi        :     27.69s CPU     27.68s WALL (     149 calls)
     g_psi        :      0.99s CPU      0.98s WALL (     104 calls)
     cdiaghg      :      3.40s CPU      3.40s WALL (     143 calls)

     Called by h_psi:
     h_psi:pot    :    477.25s CPU    484.45s WALL (     149 calls)
     h_psi:calbec :     27.42s CPU     27.50s WALL (     149 calls)
     vloc_psi     :    422.19s CPU    429.33s WALL (     149 calls)
     add_vuspsi   :     27.63s CPU     27.61s WALL (     149 calls)

     General routines
     calbec       :     40.66s CPU     40.75s WALL (     206 calls)
     fft          :      4.65s CPU      4.92s WALL (     209 calls)
     fftw         :    425.62s CPU    433.30s WALL (   36948 calls)

     Parallel routines
     fft_scatt_xy :     72.32s CPU     72.31s WALL (   37157 calls)
     fft_scatt_yz :     77.73s CPU     82.12s WALL (   37157 calls)

     PWSCF        : 12m35.01s CPU    12m50.98s WALL


   This run was terminated on:  15:16:33  25Oct2021            

=------------------------------------------------------------------------------=
   JOB DONE.
=------------------------------------------------------------------------------=
Note: The following floating-point exceptions are signalling: IEEE_UNDERFLOW_FLAG IEEE_DENORMAL
