
     Program PWSCF v.6.2 (svn rev. 13949:13950) starts on 24Oct2021 at 22: 8:40 

     This program is part of the open-source Quantum ESPRESSO suite
     for quantum simulation of materials; please cite
         "P. Giannozzi et al., J. Phys.:Condens. Matter 21 395502 (2009);
         "P. Giannozzi et al., J. Phys.:Condens. Matter 29 465901 (2017);
          URL http://www.quantum-espresso.org", 
     in publications or presentations arising from this work. More details at
     http://www.quantum-espresso.org/quote

     Parallel version (MPI), running on     4 processors

     MPI processes distributed on     1 nodes
     R & G space division:  proc/nbgrp/npool/nimage =       4
     Reading input from headeradd_supercell-00032.in

     Current dimensions of program PWSCF are:
     Max number of different atomic species (ntypx) = 10
     Max number of k-points (npk) =  40000
     Max angular momentum in pseudopotentials (lmaxx) =  3
     Message from routine iosys:
     minimal I/O required, wf_collect reset to FALSE
               file Si.pbe-n-kjpaw_psl.0.1.UPF: wavefunction(s)  3S renormalized

     Subspace diagonalization in iterative solution of the eigenvalue problem:
     a serial algorithm will be used


     Parallelization info
     --------------------
     sticks:   dense  smooth     PW     G-vecs:    dense   smooth      PW
     Min        2372    2372    612               174341   174341   22844
     Max        2374    2374    613               174344   174344   22847
     Sum        9493    9493   2449               697371   697371   91383



     bravais-lattice index     =            0
     lattice parameter (alat)  =      20.6591  a.u.
     unit-cell volume          =    8817.2783 (a.u.)^3
     number of atoms/cell      =           64
     number of atomic types    =            1
     number of electrons       =       256.00
     number of Kohn-Sham states=          128
     kinetic-energy cutoff     =      70.0000  Ry
     charge density cutoff     =     280.0000  Ry
     convergence threshold     =      1.0E-09
     mixing beta               =       0.7000
     number of iterations used =            8  plain     mixing
     Exchange-correlation      =  SLA  PW   PBX  PBC ( 1  4  3  4 0 0)

     celldm(1)=  20.659106  celldm(2)=   0.000000  celldm(3)=   0.000000
     celldm(4)=   0.000000  celldm(5)=   0.000000  celldm(6)=   0.000000

     crystal axes: (cart. coord. in units of alat)
               a(1) = (   1.000000   0.000000   0.000000 )  
               a(2) = (   0.000000   1.000000   0.000000 )  
               a(3) = (   0.000000   0.000000   1.000000 )  

     reciprocal axes: (cart. coord. in units 2 pi/alat)
               b(1) = (  1.000000  0.000000  0.000000 )  
               b(2) = (  0.000000  1.000000  0.000000 )  
               b(3) = (  0.000000  0.000000  1.000000 )  


     PseudoPot. # 1 for Si read from file:
     /home/uezono/pseudo/Si.pbe-n-kjpaw_psl.0.1.UPF
     MD5 check sum: 0810ef13ebffcf5dbabd57b297315270
     Pseudo is Projector augmented-wave + core cor, Zval =  4.0
     Generated using "atomic" code by A. Dal Corso  v.5.0.2 svn rev. 9415
     Shape of augmentation charge: PSQ
     Using radial grid of 1141 points,  4 beta functions with: 
                l(1) =   0
                l(2) =   0
                l(3) =   1
                l(4) =   1
     Q(r) pseudized with 0 coefficients 


     atomic species   valence    mass     pseudopotential
        Si             4.00    28.08550     Si( 1.00)

     No symmetry found



   Cartesian axes

     site n.     atom                  positions (alat units)
         1           Si  tau(   1) = (   0.4404043   0.4375000   0.4375000  )
         2           Si  tau(   2) = (   0.9375000   0.4375000   0.4375000  )
         3           Si  tau(   3) = (   0.4375000   0.9375000   0.4375000  )
         4           Si  tau(   4) = (   0.9375000   0.9375000   0.4375000  )
         5           Si  tau(   5) = (   0.4375000   0.4375000   0.9375000  )
         6           Si  tau(   6) = (   0.9375000   0.4375000   0.9375000  )
         7           Si  tau(   7) = (   0.4375000   0.9375000   0.9375000  )
         8           Si  tau(   8) = (   0.9375000   0.9375000   0.9375000  )
         9           Si  tau(   9) = (   0.4375000   0.1875000   0.1875000  )
        10           Si  tau(  10) = (   0.9375000   0.1875000   0.1875000  )
        11           Si  tau(  11) = (   0.4375000   0.6875000   0.1875000  )
        12           Si  tau(  12) = (   0.9375000   0.6875000   0.1875000  )
        13           Si  tau(  13) = (   0.4375000   0.1875000   0.6875000  )
        14           Si  tau(  14) = (   0.9375000   0.1875000   0.6875000  )
        15           Si  tau(  15) = (   0.4375000   0.6875000   0.6875000  )
        16           Si  tau(  16) = (   0.9375000   0.6875000   0.6875000  )
        17           Si  tau(  17) = (   0.1904043   0.4375000   0.1875000  )
        18           Si  tau(  18) = (   0.6875000   0.4375000   0.1875000  )
        19           Si  tau(  19) = (   0.1875000   0.9375000   0.1875000  )
        20           Si  tau(  20) = (   0.6875000   0.9375000   0.1875000  )
        21           Si  tau(  21) = (   0.1875000   0.4375000   0.6875000  )
        22           Si  tau(  22) = (   0.6875000   0.4375000   0.6875000  )
        23           Si  tau(  23) = (   0.1875000   0.9375000   0.6875000  )
        24           Si  tau(  24) = (   0.6875000   0.9375000   0.6875000  )
        25           Si  tau(  25) = (   0.1875000   0.1875000   0.4375000  )
        26           Si  tau(  26) = (   0.6875000   0.1875000   0.4375000  )
        27           Si  tau(  27) = (   0.1875000   0.6875000   0.4375000  )
        28           Si  tau(  28) = (   0.6875000   0.6875000   0.4375000  )
        29           Si  tau(  29) = (   0.1875000   0.1875000   0.9375000  )
        30           Si  tau(  30) = (   0.6875000   0.1875000   0.9375000  )
        31           Si  tau(  31) = (   0.1875000   0.6875000   0.9375000  )
        32           Si  tau(  32) = (   0.6875000   0.6875000   0.9375000  )
        33           Si  tau(  33) = (   0.0625000   0.0625000   0.0625000  )
        34           Si  tau(  34) = (   0.5625000   0.0625000   0.0625000  )
        35           Si  tau(  35) = (   0.0625000   0.5625000   0.0625000  )
        36           Si  tau(  36) = (   0.5625000   0.5625000   0.0625000  )
        37           Si  tau(  37) = (   0.0625000   0.0625000   0.5625000  )
        38           Si  tau(  38) = (   0.5625000   0.0625000   0.5625000  )
        39           Si  tau(  39) = (   0.0625000   0.5625000   0.5625000  )
        40           Si  tau(  40) = (   0.5625000   0.5625000   0.5625000  )
        41           Si  tau(  41) = (   0.0625000   0.3125000   0.3125000  )
        42           Si  tau(  42) = (   0.5625000   0.3125000   0.3125000  )
        43           Si  tau(  43) = (   0.0625000   0.8125000   0.3125000  )
        44           Si  tau(  44) = (   0.5625000   0.8125000   0.3125000  )
        45           Si  tau(  45) = (   0.0625000   0.3125000   0.8125000  )
        46           Si  tau(  46) = (   0.5625000   0.3125000   0.8125000  )
        47           Si  tau(  47) = (   0.0625000   0.8125000   0.8125000  )
        48           Si  tau(  48) = (   0.5625000   0.8125000   0.8125000  )
        49           Si  tau(  49) = (   0.3125000   0.0625000   0.3125000  )
        50           Si  tau(  50) = (   0.8125000   0.0625000   0.3125000  )
        51           Si  tau(  51) = (   0.3125000   0.5625000   0.3125000  )
        52           Si  tau(  52) = (   0.8125000   0.5625000   0.3125000  )
        53           Si  tau(  53) = (   0.3125000   0.0625000   0.8125000  )
        54           Si  tau(  54) = (   0.8125000   0.0625000   0.8125000  )
        55           Si  tau(  55) = (   0.3125000   0.5625000   0.8125000  )
        56           Si  tau(  56) = (   0.8125000   0.5625000   0.8125000  )
        57           Si  tau(  57) = (   0.3125000   0.3125000   0.0625000  )
        58           Si  tau(  58) = (   0.8125000   0.3125000   0.0625000  )
        59           Si  tau(  59) = (   0.3125000   0.8125000   0.0625000  )
        60           Si  tau(  60) = (   0.8125000   0.8125000   0.0625000  )
        61           Si  tau(  61) = (   0.3125000   0.3125000   0.5625000  )
        62           Si  tau(  62) = (   0.8125000   0.3125000   0.5625000  )
        63           Si  tau(  63) = (   0.3125000   0.8125000   0.5625000  )
        64           Si  tau(  64) = (   0.8125000   0.8125000   0.5625000  )

     number of k points=     4
                       cart. coord. in units 2pi/alat
        k(    1) = (   0.2500000   0.2500000   0.2500000), wk =   0.5000000
        k(    2) = (  -0.2500000  -0.2500000   0.2500000), wk =   0.5000000
        k(    3) = (  -0.2500000   0.2500000  -0.2500000), wk =   0.5000000
        k(    4) = (   0.2500000  -0.2500000  -0.2500000), wk =   0.5000000

     Dense  grid:   697371 G-vectors     FFT dimensions: ( 120, 120, 120)

     Estimated max dynamical RAM per process >       1.08 GB

     Estimated total dynamical RAM >       4.33 GB

     Initial potential from superposition of free atoms

     starting charge  255.96421, renormalised to  256.00000
     Starting wfc are  256 randomized atomic wfcs
     Checking if some PAW data can be deallocated... 

     total cpu time spent up to now is       41.1 secs

     Self-consistent Calculation

     iteration #  1     ecut=    70.00 Ry     beta= 0.70
     Davidson diagonalization with overlap
     ethr =  1.00E-02,  avg # of iterations =  2.0

     Threshold (ethr) on eigenvalues was too large:
     Diagonalizing with lowered threshold

     Davidson diagonalization with overlap
     ethr =  6.98E-04,  avg # of iterations =  1.0

     total cpu time spent up to now is      155.8 secs

     total energy              =   -2990.46250950 Ry
     Harris-Foulkes estimate   =   -2990.88044507 Ry
     estimated scf accuracy    <       1.76638560 Ry

     iteration #  2     ecut=    70.00 Ry     beta= 0.70
     Davidson diagonalization with overlap
     ethr =  6.90E-04,  avg # of iterations =  1.0

     total cpu time spent up to now is      204.5 secs

     total energy              =   -2990.52629496 Ry
     Harris-Foulkes estimate   =   -2990.53060866 Ry
     estimated scf accuracy    <       0.07828291 Ry

     iteration #  3     ecut=    70.00 Ry     beta= 0.70
     Davidson diagonalization with overlap
     ethr =  3.06E-05,  avg # of iterations =  2.2

     total cpu time spent up to now is      261.7 secs

     total energy              =   -2990.53498745 Ry
     Harris-Foulkes estimate   =   -2990.53565803 Ry
     estimated scf accuracy    <       0.00179045 Ry

     iteration #  4     ecut=    70.00 Ry     beta= 0.70
     Davidson diagonalization with overlap
     ethr =  6.99E-07,  avg # of iterations =  3.5

     total cpu time spent up to now is      344.0 secs

     total energy              =   -2990.53556040 Ry
     Harris-Foulkes estimate   =   -2990.53626416 Ry
     estimated scf accuracy    <       0.00199665 Ry

     iteration #  5     ecut=    70.00 Ry     beta= 0.70
     Davidson diagonalization with overlap
     ethr =  6.99E-07,  avg # of iterations =  3.0

     total cpu time spent up to now is      405.1 secs

     total energy              =   -2990.53589720 Ry
     Harris-Foulkes estimate   =   -2990.53596855 Ry
     estimated scf accuracy    <       0.00020587 Ry

     iteration #  6     ecut=    70.00 Ry     beta= 0.70
     Davidson diagonalization with overlap
     ethr =  8.04E-08,  avg # of iterations =  3.0

     total cpu time spent up to now is      469.5 secs

     total energy              =   -2990.53593005 Ry
     Harris-Foulkes estimate   =   -2990.53595172 Ry
     estimated scf accuracy    <       0.00006027 Ry

     iteration #  7     ecut=    70.00 Ry     beta= 0.70
     Davidson diagonalization with overlap
     ethr =  2.35E-08,  avg # of iterations =  2.0

     total cpu time spent up to now is      529.8 secs

     total energy              =   -2990.53594055 Ry
     Harris-Foulkes estimate   =   -2990.53594114 Ry
     estimated scf accuracy    <       0.00000118 Ry

     iteration #  8     ecut=    70.00 Ry     beta= 0.70
     Davidson diagonalization with overlap
     ethr =  4.62E-10,  avg # of iterations =  3.0

     total cpu time spent up to now is      617.0 secs

     total energy              =   -2990.53594144 Ry
     Harris-Foulkes estimate   =   -2990.53594169 Ry
     estimated scf accuracy    <       0.00000041 Ry

     iteration #  9     ecut=    70.00 Ry     beta= 0.70
     Davidson diagonalization with overlap
     ethr =  1.62E-10,  avg # of iterations =  3.0

     total cpu time spent up to now is      678.2 secs

     total energy              =   -2990.53594138 Ry
     Harris-Foulkes estimate   =   -2990.53594153 Ry
     estimated scf accuracy    <       0.00000019 Ry

     iteration # 10     ecut=    70.00 Ry     beta= 0.70
     Davidson diagonalization with overlap
     ethr =  7.45E-11,  avg # of iterations =  2.0

     total cpu time spent up to now is      737.5 secs

     total energy              =   -2990.53594135 Ry
     Harris-Foulkes estimate   =   -2990.53594141 Ry
     estimated scf accuracy    <       0.00000002 Ry

     iteration # 11     ecut=    70.00 Ry     beta= 0.70
     Davidson diagonalization with overlap
     ethr =  9.59E-12,  avg # of iterations =  3.0

     total cpu time spent up to now is      802.9 secs

     total energy              =   -2990.53594136 Ry
     Harris-Foulkes estimate   =   -2990.53594136 Ry
     estimated scf accuracy    <          4.1E-09 Ry

     iteration # 12     ecut=    70.00 Ry     beta= 0.70
     Davidson diagonalization with overlap
     ethr =  1.60E-12,  avg # of iterations =  3.0

     total cpu time spent up to now is      877.3 secs

     total energy              =   -2990.53594136 Ry
     Harris-Foulkes estimate   =   -2990.53594136 Ry
     estimated scf accuracy    <          2.4E-09 Ry

     iteration # 13     ecut=    70.00 Ry     beta= 0.70
     Davidson diagonalization with overlap
     ethr =  9.26E-13,  avg # of iterations =  3.0

     total cpu time spent up to now is      939.7 secs

     End of self-consistent calculation

          k = 0.2500 0.2500 0.2500 ( 87251 PWs)   bands (ev):

    -5.6250  -5.1011  -5.0953  -5.0930  -4.6011  -4.5956  -4.5932  -4.1620
    -4.0677  -4.0621  -4.0593  -3.6566  -3.6512  -3.6466  -3.6459  -3.6432
    -3.6417  -3.4573  -3.4568  -3.4522  -2.9616  -2.9567  -2.9519  -2.5931
    -2.5902  -2.5857  -2.4302  -2.4240  -2.4206  -2.4194  -2.4166  -2.4157
    -0.8893  -0.8799  -0.8776  -0.8763  -0.8726  -0.8714  -0.7840  -0.7790
    -0.7756  -0.6672  -0.6573  -0.6569  -0.5886  -0.5772  -0.5753   0.1226
     0.2015   0.2094   0.2111   0.2128   0.2182   0.2206   1.0765   1.0855
     1.0869   1.4127   1.4207   1.4217   2.0247   2.0255   2.0286   2.0300
     2.0320   2.0342   2.0856   2.0907   2.0923   2.6353   2.6389   2.6402
     2.7394   2.7407   2.7424   2.7446   2.7483   2.7502   2.7934   2.8006
     2.8032   3.0995   3.1060   3.1072   3.1080   3.1112   3.1127   3.3715
     3.3719   3.3755   3.3819   3.3898   3.3904   3.7283   3.7345   3.7354
     3.7508   3.7530   3.7560   3.8377   3.8397   3.8446   4.1051   4.1076
     4.1110   4.1140   4.1151   4.1161   4.1518   4.1537   4.1597   4.4089
     4.4712   4.4719   4.4768   4.7128   4.7149   4.7212   4.7681   4.7766
     4.7779   4.9325   4.9424   5.2421   5.2440   5.2529   5.7206   5.7321

          k =-0.2500-0.2500 0.2500 ( 87251 PWs)   bands (ev):

    -5.6251  -5.0988  -5.0962  -5.0936  -4.5994  -4.5967  -4.5941  -4.1642
    -4.0661  -4.0637  -4.0612  -3.6521  -3.6506  -3.6485  -3.6468  -3.6436
    -3.6380  -3.4575  -3.4527  -3.4521  -2.9635  -2.9600  -2.9578  -2.5926
    -2.5884  -2.5857  -2.4256  -2.4250  -2.4223  -2.4207  -2.4181  -2.4111
    -0.8858  -0.8834  -0.8809  -0.8780  -0.8768  -0.8682  -0.7851  -0.7824
    -0.7763  -0.6673  -0.6670  -0.6573  -0.5777  -0.5712  -0.5666   0.1300
     0.2016   0.2046   0.2071   0.2103   0.2120   0.2199   1.0833   1.0865
     1.0935   1.4148   1.4166   1.4235   2.0241   2.0269   2.0285   2.0292
     2.0322   2.0333   2.0850   2.0858   2.0903   2.6400   2.6414   2.6448
     2.7360   2.7379   2.7419   2.7434   2.7452   2.7469   2.7901   2.7937
     2.7984   3.1030   3.1047   3.1066   3.1078   3.1090   3.1155   3.3676
     3.3716   3.3724   3.3820   3.3829   3.3898   3.7340   3.7358   3.7399
     3.7569   3.7598   3.7623   3.8350   3.8383   3.8418   4.1123   4.1134
     4.1145   4.1170   4.1204   4.1241   4.1483   4.1523   4.1566   4.4170
     4.4649   4.4703   4.4709   4.7088   4.7129   4.7156   4.7791   4.7832
     4.7891   4.9298   4.9401   5.2358   5.2412   5.2454   5.7160   5.7272

          k =-0.2500 0.2500-0.2500 ( 87251 PWs)   bands (ev):

    -5.6251  -5.0997  -5.0972  -5.0917  -4.6002  -4.5977  -4.5923  -4.1642
    -4.0675  -4.0646  -4.0592  -3.6524  -3.6509  -3.6481  -3.6473  -3.6430
    -3.6377  -3.4574  -3.4528  -3.4520  -2.9655  -2.9603  -2.9556  -2.5926
    -2.5884  -2.5857  -2.4259  -2.4250  -2.4223  -2.4211  -2.4177  -2.4109
    -0.8859  -0.8840  -0.8800  -0.8785  -0.8765  -0.8680  -0.7851  -0.7825
    -0.7761  -0.6674  -0.6669  -0.6575  -0.5772  -0.5751  -0.5631   0.1301
     0.2012   0.2034   0.2087   0.2103   0.2121   0.2199   1.0837   1.0854
     1.0943   1.4148   1.4161   1.4239   2.0234   2.0262   2.0285   2.0297
     2.0325   2.0334   2.0845   2.0859   2.0915   2.6400   2.6413   2.6449
     2.7345   2.7365   2.7420   2.7441   2.7456   2.7470   2.7913   2.7929
     2.7994   3.1027   3.1041   3.1072   3.1079   3.1092   3.1154   3.3676
     3.3716   3.3724   3.3821   3.3825   3.3902   3.7341   3.7349   3.7407
     3.7568   3.7600   3.7622   3.8341   3.8393   3.8416   4.1123   4.1134
     4.1145   4.1173   4.1205   4.1236   4.1477   4.1532   4.1565   4.4170
     4.4648   4.4701   4.4711   4.7076   4.7140   4.7154   4.7794   4.7808
     4.7912   4.9299   4.9400   5.2345   5.2428   5.2452   5.7159   5.7272

          k = 0.2500-0.2500-0.2500 ( 87251 PWs)   bands (ev):

    -5.6250  -5.0991  -5.0965  -5.0938  -4.5993  -4.5967  -4.5940  -4.1620
    -4.0656  -4.0629  -4.0604  -3.6566  -3.6505  -3.6470  -3.6455  -3.6434
    -3.6424  -3.4574  -3.4568  -3.4523  -2.9594  -2.9572  -2.9535  -2.5931
    -2.5902  -2.5857  -2.4301  -2.4235  -2.4210  -2.4194  -2.4166  -2.4158
    -0.8894  -0.8796  -0.8781  -0.8756  -0.8730  -0.8714  -0.7841  -0.7789
    -0.7756  -0.6669  -0.6574  -0.6568  -0.5857  -0.5808  -0.5747   0.1226
     0.2016   0.2094   0.2110   0.2144   0.2170   0.2202   1.0771   1.0845
     1.0873   1.4131   1.4202   1.4218   2.0249   2.0260   2.0293   2.0300
     2.0314   2.0342   2.0864   2.0905   2.0910   2.6352   2.6390   2.6402
     2.7395   2.7411   2.7429   2.7446   2.7486   2.7504   2.7942   2.7992
     2.8023   3.0995   3.1061   3.1074   3.1086   3.1105   3.1124   3.3715
     3.3719   3.3756   3.3822   3.3897   3.3902   3.7289   3.7334   3.7357
     3.7510   3.7529   3.7560   3.8376   3.8407   3.8438   4.1050   4.1074
     4.1113   4.1140   4.1149   4.1163   4.1516   4.1550   4.1584   4.4089
     4.4711   4.4721   4.4769   4.7127   4.7163   4.7202   4.7697   4.7746
     4.7782   4.9325   4.9423   5.2419   5.2458   5.2512   5.7207   5.7321

     highest occupied level (ev):     5.7321

!    total energy              =   -2990.53594136 Ry
     Harris-Foulkes estimate   =   -2990.53594136 Ry
     estimated scf accuracy    <          7.3E-10 Ry

     total all-electron energy =    -37124.671495 Ry

     The total energy is the sum of the following terms:

     one-electron contribution =     178.60440421 Ry
     hartree contribution      =      35.70160776 Ry
     xc contribution           =    -391.44049559 Ry
     ewald contribution        =    -534.00644879 Ry
     one-center paw contrib.   =   -2279.39500895 Ry

     convergence has been achieved in  13 iterations

     Forces acting on atoms (cartesian axes, Ry/au):

     atom    1 type  1   force =    -0.01563546    0.00011612    0.00022513
     atom    2 type  1   force =     0.00025377    0.00010858   -0.00022692
     atom    3 type  1   force =     0.00009639    0.00001027   -0.00007593
     atom    4 type  1   force =     0.00003569    0.00001033    0.00007702
     atom    5 type  1   force =     0.00029211   -0.00011507   -0.00023312
     atom    6 type  1   force =     0.00022471   -0.00011033    0.00022664
     atom    7 type  1   force =    -0.00043294   -0.00000888    0.00007564
     atom    8 type  1   force =     0.00006652   -0.00000891   -0.00007751
     atom    9 type  1   force =    -0.00029150   -0.00011880    0.00000016
     atom   10 type  1   force =     0.00023037    0.00023619   -0.00009988
     atom   11 type  1   force =    -0.00028723    0.00034022    0.00000419
     atom   12 type  1   force =     0.00023206   -0.00021732    0.00010013
     atom   13 type  1   force =    -0.00048182   -0.00003340    0.00010041
     atom   14 type  1   force =     0.00004259   -0.00008683    0.00000029
     atom   15 type  1   force =    -0.00048670   -0.00018950   -0.00010426
     atom   16 type  1   force =     0.00004173    0.00006786    0.00000044
     atom   17 type  1   force =    -0.01562849   -0.00010709    0.00023525
     atom   18 type  1   force =     0.00025963   -0.00011501   -0.00023291
     atom   19 type  1   force =     0.00009665   -0.00000870   -0.00007699
     atom   20 type  1   force =     0.00003521   -0.00000897    0.00007640
     atom   21 type  1   force =     0.00028496    0.00010869   -0.00022695
     atom   22 type  1   force =     0.00023095    0.00011314    0.00023308
     atom   23 type  1   force =    -0.00043235    0.00001012    0.00007710
     atom   24 type  1   force =     0.00006612    0.00001044   -0.00007583
     atom   25 type  1   force =    -0.00029217    0.00011774   -0.00000013
     atom   26 type  1   force =     0.00023854   -0.00024296   -0.00010422
     atom   27 type  1   force =    -0.00029623   -0.00034307   -0.00000383
     atom   28 type  1   force =     0.00023653    0.00022371    0.00010462
     atom   29 type  1   force =    -0.00048595    0.00003718    0.00010405
     atom   30 type  1   force =     0.00004130    0.00008538   -0.00000088
     atom   31 type  1   force =    -0.00048127    0.00018668   -0.00010033
     atom   32 type  1   force =     0.00004273   -0.00006596   -0.00000040
     atom   33 type  1   force =    -0.00008044   -0.00000601    0.00008274
     atom   34 type  1   force =     0.00028309    0.00000186    0.00005620
     atom   35 type  1   force =     0.00383541   -0.00245596    0.00250701
     atom   36 type  1   force =    -0.00007408    0.00001165    0.00007657
     atom   37 type  1   force =     0.00027864   -0.00000235    0.00005498
     atom   38 type  1   force =    -0.00008269    0.00000818    0.00008164
     atom   39 type  1   force =    -0.00007180   -0.00001406    0.00007597
     atom   40 type  1   force =     0.00395788    0.00267476    0.00272992
     atom   41 type  1   force =     0.00379791    0.00244284   -0.00252059
     atom   42 type  1   force =     0.00391559   -0.00266709   -0.00274142
     atom   43 type  1   force =    -0.00003255    0.00001336   -0.00007844
     atom   44 type  1   force =    -0.00003312   -0.00001164   -0.00007879
     atom   45 type  1   force =    -0.00003294    0.00002475   -0.00006252
     atom   46 type  1   force =    -0.00003322   -0.00002194   -0.00006518
     atom   47 type  1   force =     0.00023067   -0.00000295   -0.00005904
     atom   48 type  1   force =     0.00023357    0.00000399   -0.00005901
     atom   49 type  1   force =    -0.00012009    0.00000181    0.00010166
     atom   50 type  1   force =     0.00005410   -0.00000148    0.00005566
     atom   51 type  1   force =     0.00773910    0.00022144    0.00518571
     atom   52 type  1   force =    -0.00002573   -0.00000004    0.00007611
     atom   53 type  1   force =     0.00050795    0.00000043    0.00005522
     atom   54 type  1   force =    -0.00004370    0.00000043    0.00006162
     atom   55 type  1   force =    -0.00012010   -0.00000181    0.00007631
     atom   56 type  1   force =     0.00005433   -0.00000320    0.00005113
     atom   57 type  1   force =     0.00386964   -0.00265382   -0.00274188
     atom   58 type  1   force =     0.00001519   -0.00000959   -0.00006511
     atom   59 type  1   force =     0.00019146   -0.00001032   -0.00007780
     atom   60 type  1   force =     0.00000404    0.00000701   -0.00005787
     atom   61 type  1   force =     0.00374969    0.00243043   -0.00252041
     atom   62 type  1   force =     0.00001330    0.00001059   -0.00006202
     atom   63 type  1   force =     0.00019620    0.00001049   -0.00007911
     atom   64 type  1   force =     0.00000623   -0.00000362   -0.00005969

     Total force =     0.027381     Total SCF correction =     0.000055


     Computing stress (Cartesian axis) and pressure

          total   stress  (Ry/bohr**3)                   (kbar)     P=    0.12
   0.00000059  -0.00000000  -0.00000000          0.09     -0.00     -0.00
  -0.00000000   0.00000089   0.00000476         -0.00      0.13      0.70
  -0.00000000   0.00000476   0.00000089         -0.00      0.70      0.13


     init_run     :     40.11s CPU     40.99s WALL (       1 calls)
     electrons    :    877.91s CPU    898.63s WALL (       1 calls)
     forces       :     11.59s CPU     11.82s WALL (       1 calls)
     stress       :     56.46s CPU     56.71s WALL (       1 calls)

     Called by init_run:
     wfcinit      :     37.03s CPU     37.79s WALL (       1 calls)
     potinit      :      1.05s CPU      1.09s WALL (       1 calls)

     Called by electrons:
     c_bands      :    729.22s CPU    746.59s WALL (      14 calls)
     sum_band     :    132.02s CPU    134.49s WALL (      14 calls)
     v_of_rho     :      5.44s CPU      5.56s WALL (      14 calls)
     newd         :      2.92s CPU      3.73s WALL (      14 calls)
     PAW_pot      :      8.10s CPU      8.10s WALL (      14 calls)
     mix_rho      :      1.22s CPU      1.25s WALL (      14 calls)

     Called by c_bands:
     init_us_2    :      7.82s CPU      7.88s WALL (     124 calls)
     cegterg      :    714.44s CPU    731.74s WALL (      56 calls)

     Called by sum_band:
     sum_band:bec :      0.02s CPU      0.02s WALL (      56 calls)
     addusdens    :      3.57s CPU      4.35s WALL (      14 calls)

     Called by *egterg:
     h_psi        :    635.41s CPU    646.36s WALL (     199 calls)
     s_psi        :     36.56s CPU     36.55s WALL (     199 calls)
     g_psi        :      1.32s CPU      1.29s WALL (     139 calls)
     cdiaghg      :      4.54s CPU      4.55s WALL (     191 calls)

     Called by h_psi:
     h_psi:pot    :    631.40s CPU    642.25s WALL (     199 calls)
     h_psi:calbec :     36.40s CPU     36.44s WALL (     199 calls)
     vloc_psi     :    558.60s CPU    569.41s WALL (     199 calls)
     add_vuspsi   :     36.39s CPU     36.40s WALL (     199 calls)

     General routines
     calbec       :     53.46s CPU     53.50s WALL (     275 calls)
     fft          :      4.63s CPU      4.84s WALL (     209 calls)
     fftw         :    564.65s CPU    576.47s WALL (   48980 calls)

     Parallel routines
     fft_scatt_xy :     95.23s CPU     95.28s WALL (   49189 calls)
     fft_scatt_yz :    105.12s CPU    111.74s WALL (   49189 calls)

     PWSCF        : 16m26.16s CPU    16m48.27s WALL


   This run was terminated on:  22:25:28  24Oct2021            

=------------------------------------------------------------------------------=
   JOB DONE.
=------------------------------------------------------------------------------=
Note: The following floating-point exceptions are signalling: IEEE_UNDERFLOW_FLAG IEEE_DENORMAL
