
     Program PWSCF v.6.2 (svn rev. 13949:13950) starts on 25Oct2021 at  6:38: 9 

     This program is part of the open-source Quantum ESPRESSO suite
     for quantum simulation of materials; please cite
         "P. Giannozzi et al., J. Phys.:Condens. Matter 21 395502 (2009);
         "P. Giannozzi et al., J. Phys.:Condens. Matter 29 465901 (2017);
          URL http://www.quantum-espresso.org", 
     in publications or presentations arising from this work. More details at
     http://www.quantum-espresso.org/quote

     Parallel version (MPI), running on     4 processors

     MPI processes distributed on     1 nodes
     R & G space division:  proc/nbgrp/npool/nimage =       4
     Reading input from headeradd_supercell-00064.in

     Current dimensions of program PWSCF are:
     Max number of different atomic species (ntypx) = 10
     Max number of k-points (npk) =  40000
     Max angular momentum in pseudopotentials (lmaxx) =  3
     Message from routine iosys:
     minimal I/O required, wf_collect reset to FALSE
               file Si.pbe-n-kjpaw_psl.0.1.UPF: wavefunction(s)  3S renormalized

     Subspace diagonalization in iterative solution of the eigenvalue problem:
     a serial algorithm will be used


     Parallelization info
     --------------------
     sticks:   dense  smooth     PW     G-vecs:    dense   smooth      PW
     Min        2372    2372    612               174341   174341   22844
     Max        2374    2374    613               174344   174344   22847
     Sum        9493    9493   2449               697371   697371   91383



     bravais-lattice index     =            0
     lattice parameter (alat)  =      20.6591  a.u.
     unit-cell volume          =    8817.2783 (a.u.)^3
     number of atoms/cell      =           64
     number of atomic types    =            1
     number of electrons       =       256.00
     number of Kohn-Sham states=          128
     kinetic-energy cutoff     =      70.0000  Ry
     charge density cutoff     =     280.0000  Ry
     convergence threshold     =      1.0E-09
     mixing beta               =       0.7000
     number of iterations used =            8  plain     mixing
     Exchange-correlation      =  SLA  PW   PBX  PBC ( 1  4  3  4 0 0)

     celldm(1)=  20.659106  celldm(2)=   0.000000  celldm(3)=   0.000000
     celldm(4)=   0.000000  celldm(5)=   0.000000  celldm(6)=   0.000000

     crystal axes: (cart. coord. in units of alat)
               a(1) = (   1.000000   0.000000   0.000000 )  
               a(2) = (   0.000000   1.000000   0.000000 )  
               a(3) = (   0.000000   0.000000   1.000000 )  

     reciprocal axes: (cart. coord. in units 2 pi/alat)
               b(1) = (  1.000000  0.000000  0.000000 )  
               b(2) = (  0.000000  1.000000  0.000000 )  
               b(3) = (  0.000000  0.000000  1.000000 )  


     PseudoPot. # 1 for Si read from file:
     /home/uezono/pseudo/Si.pbe-n-kjpaw_psl.0.1.UPF
     MD5 check sum: 0810ef13ebffcf5dbabd57b297315270
     Pseudo is Projector augmented-wave + core cor, Zval =  4.0
     Generated using "atomic" code by A. Dal Corso  v.5.0.2 svn rev. 9415
     Shape of augmentation charge: PSQ
     Using radial grid of 1141 points,  4 beta functions with: 
                l(1) =   0
                l(2) =   0
                l(3) =   1
                l(4) =   1
     Q(r) pseudized with 0 coefficients 


     atomic species   valence    mass     pseudopotential
        Si             4.00    28.08550     Si( 1.00)

     No symmetry found



   Cartesian axes

     site n.     atom                  positions (alat units)
         1           Si  tau(   1) = (   0.4404043   0.4375000   0.4375000  )
         2           Si  tau(   2) = (   0.9375000   0.4375000   0.4375000  )
         3           Si  tau(   3) = (   0.4375000   0.9375000   0.4375000  )
         4           Si  tau(   4) = (   0.9375000   0.9375000   0.4375000  )
         5           Si  tau(   5) = (   0.4375000   0.4375000   0.9375000  )
         6           Si  tau(   6) = (   0.9375000   0.4375000   0.9375000  )
         7           Si  tau(   7) = (   0.4375000   0.9375000   0.9375000  )
         8           Si  tau(   8) = (   0.9375000   0.9375000   0.9375000  )
         9           Si  tau(   9) = (   0.4375000   0.1875000   0.1875000  )
        10           Si  tau(  10) = (   0.9375000   0.1875000   0.1875000  )
        11           Si  tau(  11) = (   0.4375000   0.6875000   0.1875000  )
        12           Si  tau(  12) = (   0.9375000   0.6875000   0.1875000  )
        13           Si  tau(  13) = (   0.4375000   0.1875000   0.6875000  )
        14           Si  tau(  14) = (   0.9375000   0.1875000   0.6875000  )
        15           Si  tau(  15) = (   0.4375000   0.6875000   0.6875000  )
        16           Si  tau(  16) = (   0.9375000   0.6875000   0.6875000  )
        17           Si  tau(  17) = (   0.1875000   0.4375000   0.1875000  )
        18           Si  tau(  18) = (   0.6875000   0.4375000   0.1875000  )
        19           Si  tau(  19) = (   0.1875000   0.9375000   0.1875000  )
        20           Si  tau(  20) = (   0.6875000   0.9375000   0.1875000  )
        21           Si  tau(  21) = (   0.1875000   0.4375000   0.6875000  )
        22           Si  tau(  22) = (   0.6875000   0.4375000   0.6875000  )
        23           Si  tau(  23) = (   0.1875000   0.9375000   0.6875000  )
        24           Si  tau(  24) = (   0.6875000   0.9375000   0.6875000  )
        25           Si  tau(  25) = (   0.1875000   0.1875000   0.4375000  )
        26           Si  tau(  26) = (   0.6875000   0.1875000   0.4375000  )
        27           Si  tau(  27) = (   0.1875000   0.6875000   0.4375000  )
        28           Si  tau(  28) = (   0.6875000   0.6875000   0.4375000  )
        29           Si  tau(  29) = (   0.1875000   0.1875000   0.9375000  )
        30           Si  tau(  30) = (   0.6875000   0.1875000   0.9375000  )
        31           Si  tau(  31) = (   0.1875000   0.6875000   0.9375000  )
        32           Si  tau(  32) = (   0.6875000   0.6875000   0.9375000  )
        33           Si  tau(  33) = (   0.0625000   0.0625000   0.0625000  )
        34           Si  tau(  34) = (   0.5625000   0.0625000   0.0625000  )
        35           Si  tau(  35) = (   0.0654043   0.5625000   0.0625000  )
        36           Si  tau(  36) = (   0.5625000   0.5625000   0.0625000  )
        37           Si  tau(  37) = (   0.0625000   0.0625000   0.5625000  )
        38           Si  tau(  38) = (   0.5625000   0.0625000   0.5625000  )
        39           Si  tau(  39) = (   0.0625000   0.5625000   0.5625000  )
        40           Si  tau(  40) = (   0.5625000   0.5625000   0.5625000  )
        41           Si  tau(  41) = (   0.0625000   0.3125000   0.3125000  )
        42           Si  tau(  42) = (   0.5625000   0.3125000   0.3125000  )
        43           Si  tau(  43) = (   0.0625000   0.8125000   0.3125000  )
        44           Si  tau(  44) = (   0.5625000   0.8125000   0.3125000  )
        45           Si  tau(  45) = (   0.0625000   0.3125000   0.8125000  )
        46           Si  tau(  46) = (   0.5625000   0.3125000   0.8125000  )
        47           Si  tau(  47) = (   0.0625000   0.8125000   0.8125000  )
        48           Si  tau(  48) = (   0.5625000   0.8125000   0.8125000  )
        49           Si  tau(  49) = (   0.3125000   0.0625000   0.3125000  )
        50           Si  tau(  50) = (   0.8125000   0.0625000   0.3125000  )
        51           Si  tau(  51) = (   0.3125000   0.5625000   0.3125000  )
        52           Si  tau(  52) = (   0.8125000   0.5625000   0.3125000  )
        53           Si  tau(  53) = (   0.3125000   0.0625000   0.8125000  )
        54           Si  tau(  54) = (   0.8125000   0.0625000   0.8125000  )
        55           Si  tau(  55) = (   0.3125000   0.5625000   0.8125000  )
        56           Si  tau(  56) = (   0.8125000   0.5625000   0.8125000  )
        57           Si  tau(  57) = (   0.3125000   0.3125000   0.0625000  )
        58           Si  tau(  58) = (   0.8125000   0.3125000   0.0625000  )
        59           Si  tau(  59) = (   0.3125000   0.8125000   0.0625000  )
        60           Si  tau(  60) = (   0.8125000   0.8125000   0.0625000  )
        61           Si  tau(  61) = (   0.3125000   0.3125000   0.5625000  )
        62           Si  tau(  62) = (   0.8125000   0.3125000   0.5625000  )
        63           Si  tau(  63) = (   0.3125000   0.8125000   0.5625000  )
        64           Si  tau(  64) = (   0.8125000   0.8125000   0.5625000  )

     number of k points=     4
                       cart. coord. in units 2pi/alat
        k(    1) = (   0.2500000   0.2500000   0.2500000), wk =   0.5000000
        k(    2) = (  -0.2500000  -0.2500000   0.2500000), wk =   0.5000000
        k(    3) = (  -0.2500000   0.2500000  -0.2500000), wk =   0.5000000
        k(    4) = (   0.2500000  -0.2500000  -0.2500000), wk =   0.5000000

     Dense  grid:   697371 G-vectors     FFT dimensions: ( 120, 120, 120)

     Estimated max dynamical RAM per process >       1.08 GB

     Estimated total dynamical RAM >       4.33 GB

     Initial potential from superposition of free atoms

     starting charge  255.96421, renormalised to  256.00000
     Starting wfc are  256 randomized atomic wfcs
     Checking if some PAW data can be deallocated... 

     total cpu time spent up to now is       41.1 secs

     Self-consistent Calculation

     iteration #  1     ecut=    70.00 Ry     beta= 0.70
     Davidson diagonalization with overlap
     ethr =  1.00E-02,  avg # of iterations =  2.0

     Threshold (ethr) on eigenvalues was too large:
     Diagonalizing with lowered threshold

     Davidson diagonalization with overlap
     ethr =  6.98E-04,  avg # of iterations =  1.0

     total cpu time spent up to now is      155.9 secs

     total energy              =   -2990.46247400 Ry
     Harris-Foulkes estimate   =   -2990.88046122 Ry
     estimated scf accuracy    <       1.76653383 Ry

     iteration #  2     ecut=    70.00 Ry     beta= 0.70
     Davidson diagonalization with overlap
     ethr =  6.90E-04,  avg # of iterations =  1.0

     total cpu time spent up to now is      204.6 secs

     total energy              =   -2990.52628285 Ry
     Harris-Foulkes estimate   =   -2990.53059645 Ry
     estimated scf accuracy    <       0.07826799 Ry

     iteration #  3     ecut=    70.00 Ry     beta= 0.70
     Davidson diagonalization with overlap
     ethr =  3.06E-05,  avg # of iterations =  2.5

     total cpu time spent up to now is      261.9 secs

     total energy              =   -2990.53497248 Ry
     Harris-Foulkes estimate   =   -2990.53564663 Ry
     estimated scf accuracy    <       0.00179542 Ry

     iteration #  4     ecut=    70.00 Ry     beta= 0.70
     Davidson diagonalization with overlap
     ethr =  7.01E-07,  avg # of iterations =  4.0

     total cpu time spent up to now is      345.0 secs

     total energy              =   -2990.53553745 Ry
     Harris-Foulkes estimate   =   -2990.53626090 Ry
     estimated scf accuracy    <       0.00204700 Ry

     iteration #  5     ecut=    70.00 Ry     beta= 0.70
     Davidson diagonalization with overlap
     ethr =  7.01E-07,  avg # of iterations =  3.0

     total cpu time spent up to now is      406.4 secs

     total energy              =   -2990.53588337 Ry
     Harris-Foulkes estimate   =   -2990.53595757 Ry
     estimated scf accuracy    <       0.00021487 Ry

     iteration #  6     ecut=    70.00 Ry     beta= 0.70
     Davidson diagonalization with overlap
     ethr =  8.39E-08,  avg # of iterations =  3.0

     total cpu time spent up to now is      470.8 secs

     total energy              =   -2990.53591755 Ry
     Harris-Foulkes estimate   =   -2990.53593930 Ry
     estimated scf accuracy    <       0.00006032 Ry

     iteration #  7     ecut=    70.00 Ry     beta= 0.70
     Davidson diagonalization with overlap
     ethr =  2.36E-08,  avg # of iterations =  2.0

     total cpu time spent up to now is      531.1 secs

     total energy              =   -2990.53592809 Ry
     Harris-Foulkes estimate   =   -2990.53592867 Ry
     estimated scf accuracy    <       0.00000110 Ry

     iteration #  8     ecut=    70.00 Ry     beta= 0.70
     Davidson diagonalization with overlap
     ethr =  4.31E-10,  avg # of iterations =  3.0

     total cpu time spent up to now is      618.6 secs

     total energy              =   -2990.53592897 Ry
     Harris-Foulkes estimate   =   -2990.53592920 Ry
     estimated scf accuracy    <       0.00000028 Ry

     iteration #  9     ecut=    70.00 Ry     beta= 0.70
     Davidson diagonalization with overlap
     ethr =  1.11E-10,  avg # of iterations =  2.8

     total cpu time spent up to now is      681.3 secs

     total energy              =   -2990.53592892 Ry
     Harris-Foulkes estimate   =   -2990.53592902 Ry
     estimated scf accuracy    <       0.00000011 Ry

     iteration # 10     ecut=    70.00 Ry     beta= 0.70
     Davidson diagonalization with overlap
     ethr =  4.17E-11,  avg # of iterations =  3.0

     total cpu time spent up to now is      744.6 secs

     total energy              =   -2990.53592889 Ry
     Harris-Foulkes estimate   =   -2990.53592894 Ry
     estimated scf accuracy    <       0.00000004 Ry

     iteration # 11     ecut=    70.00 Ry     beta= 0.70
     Davidson diagonalization with overlap
     ethr =  1.46E-11,  avg # of iterations =  3.0

     total cpu time spent up to now is      806.1 secs

     total energy              =   -2990.53592890 Ry
     Harris-Foulkes estimate   =   -2990.53592889 Ry
     estimated scf accuracy    <          4.8E-09 Ry

     iteration # 12     ecut=    70.00 Ry     beta= 0.70
     Davidson diagonalization with overlap
     ethr =  1.88E-12,  avg # of iterations =  3.0

     total cpu time spent up to now is      876.2 secs

     total energy              =   -2990.53592890 Ry
     Harris-Foulkes estimate   =   -2990.53592890 Ry
     estimated scf accuracy    <          1.5E-09 Ry

     iteration # 13     ecut=    70.00 Ry     beta= 0.70
     Davidson diagonalization with overlap
     ethr =  5.73E-13,  avg # of iterations =  3.0

     total cpu time spent up to now is      943.6 secs

     End of self-consistent calculation

          k = 0.2500 0.2500 0.2500 ( 87251 PWs)   bands (ev):

    -5.6250  -5.1000  -5.0963  -5.0926  -4.6004  -4.5968  -4.5931  -4.1633
    -4.0669  -4.0633  -4.0597  -3.6547  -3.6494  -3.6475  -3.6465  -3.6447
    -3.6397  -3.4571  -3.4549  -3.4523  -2.9625  -2.9585  -2.9546  -2.5942
    -2.5892  -2.5843  -2.4282  -2.4229  -2.4209  -2.4208  -2.4186  -2.4131
    -0.8876  -0.8812  -0.8785  -0.8778  -0.8754  -0.8692  -0.7864  -0.7805
    -0.7747  -0.6649  -0.6624  -0.6592  -0.5836  -0.5762  -0.5684   0.1262
     0.2015   0.2061   0.2101   0.2113   0.2158   0.2197   1.0782   1.0854
     1.0924   1.4162   1.4184   1.4204   2.0247   2.0272   2.0284   2.0300
     2.0312   2.0335   2.0858   2.0880   2.0905   2.6374   2.6402   2.6426
     2.7373   2.7391   2.7426   2.7440   2.7475   2.7487   2.7931   2.7963
     2.7998   3.1016   3.1046   3.1070   3.1082   3.1106   3.1134   3.3712
     3.3718   3.3720   3.3844   3.3863   3.3880   3.7301   3.7343   3.7387
     3.7539   3.7563   3.7598   3.8366   3.8394   3.8426   4.1076   4.1113
     4.1139   4.1146   4.1168   4.1210   4.1503   4.1536   4.1573   4.4133
     4.4706   4.4709   4.4712   4.7113   4.7144   4.7178   4.7726   4.7786
     4.7856   4.9361   4.9363   5.2393   5.2434   5.2479   5.7239   5.7241

          k =-0.2500-0.2500 0.2500 ( 87251 PWs)   bands (ev):

    -5.6250  -5.0990  -5.0963  -5.0937  -4.5992  -4.5968  -4.5942  -4.1631
    -4.0657  -4.0634  -4.0610  -3.6557  -3.6494  -3.6487  -3.6454  -3.6446
    -3.6385  -3.4600  -3.4549  -3.4495  -2.9608  -2.9587  -2.9563  -2.5944
    -2.5891  -2.5842  -2.4285  -2.4239  -2.4228  -2.4187  -2.4178  -2.4129
    -0.8855  -0.8819  -0.8804  -0.8761  -0.8747  -0.8714  -0.7849  -0.7804
    -0.7757  -0.6658  -0.6624  -0.6586  -0.5834  -0.5762  -0.5685   0.1263
     0.2039   0.2055   0.2089   0.2125   0.2161   0.2176   1.0800   1.0854
     1.0905   1.4168   1.4183   1.4198   2.0250   2.0262   2.0278   2.0306
     2.0321   2.0332   2.0855   2.0881   2.0911   2.6378   2.6400   2.6425
     2.7368   2.7387   2.7428   2.7438   2.7476   2.7493   2.7935   2.7961
     2.7994   3.1030   3.1048   3.1070   3.1083   3.1106   3.1119   3.3696
     3.3716   3.3737   3.3848   3.3866   3.3874   3.7313   3.7345   3.7377
     3.7515   3.7568   3.7616   3.8371   3.8395   3.8420   4.1050   4.1119
     4.1138   4.1147   4.1167   4.1231   4.1507   4.1539   4.1567   4.4130
     4.4685   4.4709   4.4735   4.7115   4.7144   4.7174   4.7734   4.7786
     4.7847   4.9362   4.9363   5.2394   5.2435   5.2476   5.7239   5.7241

          k =-0.2500 0.2500-0.2500 ( 87251 PWs)   bands (ev):

    -5.6250  -5.1005  -5.0963  -5.0922  -4.6009  -4.5966  -4.5927  -4.1633
    -4.0676  -4.0633  -4.0590  -3.6569  -3.6498  -3.6477  -3.6462  -3.6443
    -3.6374  -3.4601  -3.4548  -3.4496  -2.9637  -2.9585  -2.9535  -2.5944
    -2.5892  -2.5841  -2.4300  -2.4233  -2.4217  -2.4200  -2.4182  -2.4115
    -0.8861  -0.8805  -0.8786  -0.8777  -0.8767  -0.8708  -0.7848  -0.7802
    -0.7756  -0.6658  -0.6622  -0.6586  -0.5811  -0.5762  -0.5709   0.1262
     0.2033   0.2085   0.2096   0.2119   0.2130   0.2183   1.0800   1.0854
     1.0906   1.4161   1.4182   1.4207   2.0251   2.0262   2.0288   2.0296
     2.0323   2.0328   2.0865   2.0881   2.0902   2.6377   2.6401   2.6424
     2.7367   2.7392   2.7416   2.7449   2.7472   2.7493   2.7938   2.7962
     2.7993   3.1030   3.1044   3.1062   3.1090   3.1109   3.1119   3.3697
     3.3717   3.3736   3.3840   3.3865   3.3883   3.7307   3.7347   3.7376
     3.7518   3.7567   3.7618   3.8370   3.8395   3.8419   4.1054   4.1110
     4.1141   4.1144   4.1175   4.1225   4.1511   4.1538   4.1567   4.4130
     4.4685   4.4709   4.4735   4.7118   4.7144   4.7172   4.7742   4.7787
     4.7839   4.9362   4.9363   5.2402   5.2435   5.2470   5.7239   5.7241

          k = 0.2500-0.2500-0.2500 ( 87251 PWs)   bands (ev):

    -5.6250  -5.1000  -5.0963  -5.0927  -4.6004  -4.5967  -4.5931  -4.1631
    -4.0670  -4.0634  -4.0598  -3.6557  -3.6503  -3.6478  -3.6461  -3.6438
    -3.6387  -3.4549  -3.4548  -3.4545  -2.9625  -2.9586  -2.9546  -2.5897
    -2.5892  -2.5890  -2.4289  -2.4237  -2.4220  -2.4196  -2.4179  -2.4124
    -0.8868  -0.8818  -0.8801  -0.8763  -0.8748  -0.8703  -0.7806  -0.7805
    -0.7798  -0.6624  -0.6623  -0.6619  -0.5836  -0.5762  -0.5685   0.1264
     0.2041   0.2062   0.2082   0.2133   0.2154   0.2173   1.0782   1.0854
     1.0924   1.4162   1.4183   1.4204   2.0250   2.0269   2.0286   2.0298
     2.0312   2.0330   2.0860   2.0884   2.0907   2.6385   2.6402   2.6416
     2.7388   2.7394   2.7423   2.7441   2.7462   2.7470   2.7935   2.7966
     2.8002   3.1015   3.1047   3.1074   3.1077   3.1103   3.1135   3.3698
     3.3717   3.3734   3.3844   3.3867   3.3879   3.7302   3.7346   3.7388
     3.7546   3.7563   3.7589   3.8365   3.8394   3.8425   4.1080   4.1113
     4.1135   4.1150   4.1164   4.1207   4.1506   4.1535   4.1575   4.4133
     4.4679   4.4712   4.4736   4.7111   4.7143   4.7176   4.7726   4.7786
     4.7856   4.9363   4.9363   5.2393   5.2434   5.2480   5.7239   5.7240

     highest occupied level (ev):     5.7241

!    total energy              =   -2990.53592890 Ry
     Harris-Foulkes estimate   =   -2990.53592890 Ry
     estimated scf accuracy    <          2.8E-10 Ry

     total all-electron energy =    -37124.671482 Ry

     The total energy is the sum of the following terms:

     one-electron contribution =     178.60422981 Ry
     hartree contribution      =      35.70169155 Ry
     xc contribution           =    -391.44049859 Ry
     ewald contribution        =    -534.00634242 Ry
     one-center paw contrib.   =   -2279.39500926 Ry

     convergence has been achieved in  13 iterations

     Forces acting on atoms (cartesian axes, Ry/au):

     atom    1 type  1   force =    -0.01584036    0.00002867    0.00002436
     atom    2 type  1   force =    -0.00003699    0.00005153    0.00003733
     atom    3 type  1   force =     0.00003231    0.00003113    0.00003079
     atom    4 type  1   force =     0.00024587    0.00002808    0.00002737
     atom    5 type  1   force =     0.00004157    0.00003808    0.00003809
     atom    6 type  1   force =     0.00380377    0.00248197    0.00248175
     atom    7 type  1   force =    -0.00044711    0.00002579    0.00002906
     atom    8 type  1   force =    -0.00003496    0.00003703    0.00005134
     atom    9 type  1   force =    -0.00050070    0.00008753    0.00008486
     atom   10 type  1   force =    -0.00005975   -0.00002782   -0.00004217
     atom   11 type  1   force =    -0.00053682    0.00007156   -0.00014785
     atom   12 type  1   force =     0.00381038   -0.00247258   -0.00249256
     atom   13 type  1   force =    -0.00054571   -0.00014064    0.00007848
     atom   14 type  1   force =     0.00025254   -0.00003700   -0.00001759
     atom   15 type  1   force =    -0.00050025   -0.00014246   -0.00013961
     atom   16 type  1   force =    -0.00005971   -0.00006141   -0.00004580
     atom   17 type  1   force =     0.00415845   -0.00281567    0.00293093
     atom   18 type  1   force =     0.00022499   -0.00015190   -0.00019491
     atom   19 type  1   force =    -0.00001834   -0.00004853   -0.00002678
     atom   20 type  1   force =     0.00006797   -0.00003448    0.00010269
     atom   21 type  1   force =     0.00016959    0.00005938   -0.00018813
     atom   22 type  1   force =     0.00026391    0.00008727    0.00025832
     atom   23 type  1   force =     0.00029840   -0.00001824    0.00010513
     atom   24 type  1   force =     0.00002034   -0.00002171   -0.00004459
     atom   25 type  1   force =     0.00048711    0.00025485   -0.00013724
     atom   26 type  1   force =     0.00021573   -0.00020160   -0.00014561
     atom   27 type  1   force =     0.00017047   -0.00017656    0.00007095
     atom   28 type  1   force =     0.00026350    0.00025934    0.00008886
     atom   29 type  1   force =    -0.00001872   -0.00003794   -0.00005954
     atom   30 type  1   force =     0.00006849    0.00010141   -0.00003660
     atom   31 type  1   force =     0.00397111    0.00278133   -0.00269503
     atom   32 type  1   force =     0.00002943   -0.00003816   -0.00002847
     atom   33 type  1   force =     0.00003266    0.00003126    0.00003111
     atom   34 type  1   force =     0.00024847    0.00002750    0.00002818
     atom   35 type  1   force =    -0.01583889    0.00002634    0.00002600
     atom   36 type  1   force =    -0.00003879    0.00005026    0.00003838
     atom   37 type  1   force =    -0.00044852    0.00002474    0.00002640
     atom   38 type  1   force =    -0.00003709    0.00003872    0.00005022
     atom   39 type  1   force =     0.00004110    0.00003790    0.00003884
     atom   40 type  1   force =     0.00392195    0.00270464    0.00270423
     atom   41 type  1   force =    -0.00054142    0.00007596   -0.00015261
     atom   42 type  1   force =     0.00392783   -0.00269484   -0.00271340
     atom   43 type  1   force =    -0.00049726    0.00008512    0.00008298
     atom   44 type  1   force =    -0.00006057   -0.00002909   -0.00004099
     atom   45 type  1   force =    -0.00049810   -0.00013563   -0.00013416
     atom   46 type  1   force =    -0.00006016   -0.00005950   -0.00004803
     atom   47 type  1   force =    -0.00055048   -0.00014542    0.00008325
     atom   48 type  1   force =     0.00025447   -0.00003738   -0.00001828
     atom   49 type  1   force =    -0.00001659   -0.00004701   -0.00002456
     atom   50 type  1   force =     0.00007002   -0.00003578    0.00010579
     atom   51 type  1   force =     0.00405027   -0.00259434    0.00271398
     atom   52 type  1   force =     0.00021830   -0.00014771   -0.00019003
     atom   53 type  1   force =     0.00029447   -0.00001860    0.00010346
     atom   54 type  1   force =     0.00002024   -0.00002138   -0.00004599
     atom   55 type  1   force =     0.00017894    0.00006269   -0.00019443
     atom   56 type  1   force =     0.00025949    0.00008067    0.00025435
     atom   57 type  1   force =     0.00017873   -0.00018089    0.00007629
     atom   58 type  1   force =     0.00025925    0.00025672    0.00008307
     atom   59 type  1   force =     0.00049049    0.00026041   -0.00014202
     atom   60 type  1   force =     0.00020938   -0.00019708   -0.00014072
     atom   61 type  1   force =     0.00385294    0.00255728   -0.00247228
     atom   62 type  1   force =     0.00002944   -0.00003904   -0.00002805
     atom   63 type  1   force =    -0.00001677   -0.00003821   -0.00006081
     atom   64 type  1   force =     0.00006967    0.00010345   -0.00003797

     Total force =     0.027265     Total SCF correction =     0.000031


     Computing stress (Cartesian axis) and pressure

          total   stress  (Ry/bohr**3)                   (kbar)     P=    0.12
   0.00000059   0.00000000  -0.00000000          0.09      0.00     -0.00
   0.00000000   0.00000090   0.00000000          0.00      0.13      0.00
  -0.00000000   0.00000000   0.00000089         -0.00      0.00      0.13


     init_run     :     40.16s CPU     40.99s WALL (       1 calls)
     electrons    :    882.45s CPU    902.52s WALL (       1 calls)
     forces       :     11.67s CPU     11.89s WALL (       1 calls)
     stress       :     56.47s CPU     56.74s WALL (       1 calls)

     Called by init_run:
     wfcinit      :     37.09s CPU     37.81s WALL (       1 calls)
     potinit      :      1.08s CPU      1.10s WALL (       1 calls)

     Called by electrons:
     c_bands      :    733.64s CPU    750.34s WALL (      14 calls)
     sum_band     :    132.12s CPU    134.57s WALL (      14 calls)
     v_of_rho     :      5.44s CPU      5.58s WALL (      14 calls)
     newd         :      2.92s CPU      3.73s WALL (      14 calls)
     PAW_pot      :      8.14s CPU      8.14s WALL (      14 calls)
     mix_rho      :      1.22s CPU      1.25s WALL (      14 calls)

     Called by c_bands:
     init_us_2    :      7.80s CPU      7.82s WALL (     124 calls)
     cegterg      :    718.86s CPU    735.50s WALL (      56 calls)

     Called by sum_band:
     sum_band:bec :      0.01s CPU      0.02s WALL (      56 calls)
     addusdens    :      3.54s CPU      4.34s WALL (      14 calls)

     Called by *egterg:
     h_psi        :    638.40s CPU    648.79s WALL (     205 calls)
     s_psi        :     36.87s CPU     36.86s WALL (     205 calls)
     g_psi        :      1.27s CPU      1.28s WALL (     145 calls)
     cdiaghg      :      4.76s CPU      4.77s WALL (     197 calls)

     Called by h_psi:
     h_psi:pot    :    634.41s CPU    644.67s WALL (     205 calls)
     h_psi:calbec :     36.72s CPU     36.76s WALL (     205 calls)
     vloc_psi     :    560.98s CPU    571.20s WALL (     205 calls)
     add_vuspsi   :     36.71s CPU     36.71s WALL (     205 calls)

     General routines
     calbec       :     53.76s CPU     53.82s WALL (     281 calls)
     fft          :      4.57s CPU      4.80s WALL (     209 calls)
     fftw         :    566.74s CPU    578.08s WALL (   49082 calls)

     Parallel routines
     fft_scatt_xy :     96.84s CPU     97.03s WALL (   49291 calls)
     fft_scatt_yz :    102.56s CPU    109.19s WALL (   49291 calls)

     PWSCF        : 16m30.87s CPU    16m52.27s WALL


   This run was terminated on:   6:55: 1  25Oct2021            

=------------------------------------------------------------------------------=
   JOB DONE.
=------------------------------------------------------------------------------=
Note: The following floating-point exceptions are signalling: IEEE_UNDERFLOW_FLAG IEEE_DENORMAL
