
     Program PWSCF v.6.2 (svn rev. 13949:13950) starts on 25Oct2021 at  4:27:59 

     This program is part of the open-source Quantum ESPRESSO suite
     for quantum simulation of materials; please cite
         "P. Giannozzi et al., J. Phys.:Condens. Matter 21 395502 (2009);
         "P. Giannozzi et al., J. Phys.:Condens. Matter 29 465901 (2017);
          URL http://www.quantum-espresso.org", 
     in publications or presentations arising from this work. More details at
     http://www.quantum-espresso.org/quote

     Parallel version (MPI), running on     4 processors

     MPI processes distributed on     1 nodes
     R & G space division:  proc/nbgrp/npool/nimage =       4
     Reading input from headeradd_supercell-00055.in

     Current dimensions of program PWSCF are:
     Max number of different atomic species (ntypx) = 10
     Max number of k-points (npk) =  40000
     Max angular momentum in pseudopotentials (lmaxx) =  3
     Message from routine iosys:
     minimal I/O required, wf_collect reset to FALSE
               file Si.pbe-n-kjpaw_psl.0.1.UPF: wavefunction(s)  3S renormalized

     Subspace diagonalization in iterative solution of the eigenvalue problem:
     a serial algorithm will be used


     Parallelization info
     --------------------
     sticks:   dense  smooth     PW     G-vecs:    dense   smooth      PW
     Min        2372    2372    612               174341   174341   22844
     Max        2374    2374    613               174344   174344   22847
     Sum        9493    9493   2449               697371   697371   91383



     bravais-lattice index     =            0
     lattice parameter (alat)  =      20.6591  a.u.
     unit-cell volume          =    8817.2783 (a.u.)^3
     number of atoms/cell      =           64
     number of atomic types    =            1
     number of electrons       =       256.00
     number of Kohn-Sham states=          128
     kinetic-energy cutoff     =      70.0000  Ry
     charge density cutoff     =     280.0000  Ry
     convergence threshold     =      1.0E-09
     mixing beta               =       0.7000
     number of iterations used =            8  plain     mixing
     Exchange-correlation      =  SLA  PW   PBX  PBC ( 1  4  3  4 0 0)

     celldm(1)=  20.659106  celldm(2)=   0.000000  celldm(3)=   0.000000
     celldm(4)=   0.000000  celldm(5)=   0.000000  celldm(6)=   0.000000

     crystal axes: (cart. coord. in units of alat)
               a(1) = (   1.000000   0.000000   0.000000 )  
               a(2) = (   0.000000   1.000000   0.000000 )  
               a(3) = (   0.000000   0.000000   1.000000 )  

     reciprocal axes: (cart. coord. in units 2 pi/alat)
               b(1) = (  1.000000  0.000000  0.000000 )  
               b(2) = (  0.000000  1.000000  0.000000 )  
               b(3) = (  0.000000  0.000000  1.000000 )  


     PseudoPot. # 1 for Si read from file:
     /home/uezono/pseudo/Si.pbe-n-kjpaw_psl.0.1.UPF
     MD5 check sum: 0810ef13ebffcf5dbabd57b297315270
     Pseudo is Projector augmented-wave + core cor, Zval =  4.0
     Generated using "atomic" code by A. Dal Corso  v.5.0.2 svn rev. 9415
     Shape of augmentation charge: PSQ
     Using radial grid of 1141 points,  4 beta functions with: 
                l(1) =   0
                l(2) =   0
                l(3) =   1
                l(4) =   1
     Q(r) pseudized with 0 coefficients 


     atomic species   valence    mass     pseudopotential
        Si             4.00    28.08550     Si( 1.00)

     No symmetry found



   Cartesian axes

     site n.     atom                  positions (alat units)
         1           Si  tau(   1) = (   0.4404043   0.4375000   0.4375000  )
         2           Si  tau(   2) = (   0.9375000   0.4375000   0.4375000  )
         3           Si  tau(   3) = (   0.4375000   0.9375000   0.4375000  )
         4           Si  tau(   4) = (   0.9375000   0.9375000   0.4375000  )
         5           Si  tau(   5) = (   0.4375000   0.4375000   0.9375000  )
         6           Si  tau(   6) = (   0.9375000   0.4375000   0.9375000  )
         7           Si  tau(   7) = (   0.4375000   0.9375000   0.9375000  )
         8           Si  tau(   8) = (   0.9375000   0.9375000   0.9375000  )
         9           Si  tau(   9) = (   0.4375000   0.1875000   0.1875000  )
        10           Si  tau(  10) = (   0.9375000   0.1875000   0.1875000  )
        11           Si  tau(  11) = (   0.4375000   0.6875000   0.1875000  )
        12           Si  tau(  12) = (   0.9375000   0.6875000   0.1875000  )
        13           Si  tau(  13) = (   0.4375000   0.1875000   0.6875000  )
        14           Si  tau(  14) = (   0.9375000   0.1875000   0.6875000  )
        15           Si  tau(  15) = (   0.4375000   0.6875000   0.6875000  )
        16           Si  tau(  16) = (   0.9375000   0.6875000   0.6875000  )
        17           Si  tau(  17) = (   0.1875000   0.4375000   0.1875000  )
        18           Si  tau(  18) = (   0.6875000   0.4375000   0.1875000  )
        19           Si  tau(  19) = (   0.1875000   0.9375000   0.1875000  )
        20           Si  tau(  20) = (   0.6875000   0.9375000   0.1845957  )
        21           Si  tau(  21) = (   0.1875000   0.4375000   0.6875000  )
        22           Si  tau(  22) = (   0.6875000   0.4375000   0.6875000  )
        23           Si  tau(  23) = (   0.1875000   0.9375000   0.6875000  )
        24           Si  tau(  24) = (   0.6875000   0.9375000   0.6875000  )
        25           Si  tau(  25) = (   0.1875000   0.1875000   0.4375000  )
        26           Si  tau(  26) = (   0.6875000   0.1875000   0.4375000  )
        27           Si  tau(  27) = (   0.1875000   0.6875000   0.4375000  )
        28           Si  tau(  28) = (   0.6875000   0.6875000   0.4375000  )
        29           Si  tau(  29) = (   0.1875000   0.1875000   0.9375000  )
        30           Si  tau(  30) = (   0.6875000   0.1875000   0.9375000  )
        31           Si  tau(  31) = (   0.1875000   0.6875000   0.9375000  )
        32           Si  tau(  32) = (   0.6875000   0.6875000   0.9375000  )
        33           Si  tau(  33) = (   0.0625000   0.0625000   0.0625000  )
        34           Si  tau(  34) = (   0.5625000   0.0625000   0.0625000  )
        35           Si  tau(  35) = (   0.0625000   0.5625000   0.0625000  )
        36           Si  tau(  36) = (   0.5625000   0.5625000   0.0625000  )
        37           Si  tau(  37) = (   0.0625000   0.0625000   0.5625000  )
        38           Si  tau(  38) = (   0.5625000   0.0625000   0.5625000  )
        39           Si  tau(  39) = (   0.0625000   0.5625000   0.5625000  )
        40           Si  tau(  40) = (   0.5625000   0.5625000   0.5625000  )
        41           Si  tau(  41) = (   0.0625000   0.3125000   0.3125000  )
        42           Si  tau(  42) = (   0.5625000   0.3125000   0.3125000  )
        43           Si  tau(  43) = (   0.0625000   0.8125000   0.3125000  )
        44           Si  tau(  44) = (   0.5625000   0.8125000   0.3125000  )
        45           Si  tau(  45) = (   0.0625000   0.3125000   0.8125000  )
        46           Si  tau(  46) = (   0.5625000   0.3125000   0.8125000  )
        47           Si  tau(  47) = (   0.0625000   0.8125000   0.8125000  )
        48           Si  tau(  48) = (   0.5625000   0.8125000   0.8125000  )
        49           Si  tau(  49) = (   0.3125000   0.0625000   0.3125000  )
        50           Si  tau(  50) = (   0.8125000   0.0625000   0.3125000  )
        51           Si  tau(  51) = (   0.3125000   0.5625000   0.3125000  )
        52           Si  tau(  52) = (   0.8125000   0.5625000   0.3125000  )
        53           Si  tau(  53) = (   0.3125000   0.0625000   0.8125000  )
        54           Si  tau(  54) = (   0.8125000   0.0625000   0.8125000  )
        55           Si  tau(  55) = (   0.3125000   0.5625000   0.8125000  )
        56           Si  tau(  56) = (   0.8125000   0.5625000   0.8125000  )
        57           Si  tau(  57) = (   0.3125000   0.3125000   0.0625000  )
        58           Si  tau(  58) = (   0.8125000   0.3125000   0.0625000  )
        59           Si  tau(  59) = (   0.3125000   0.8125000   0.0625000  )
        60           Si  tau(  60) = (   0.8125000   0.8125000   0.0625000  )
        61           Si  tau(  61) = (   0.3125000   0.3125000   0.5625000  )
        62           Si  tau(  62) = (   0.8125000   0.3125000   0.5625000  )
        63           Si  tau(  63) = (   0.3125000   0.8125000   0.5625000  )
        64           Si  tau(  64) = (   0.8125000   0.8125000   0.5625000  )

     number of k points=     4
                       cart. coord. in units 2pi/alat
        k(    1) = (   0.2500000   0.2500000   0.2500000), wk =   0.5000000
        k(    2) = (  -0.2500000  -0.2500000   0.2500000), wk =   0.5000000
        k(    3) = (  -0.2500000   0.2500000  -0.2500000), wk =   0.5000000
        k(    4) = (   0.2500000  -0.2500000  -0.2500000), wk =   0.5000000

     Dense  grid:   697371 G-vectors     FFT dimensions: ( 120, 120, 120)

     Estimated max dynamical RAM per process >       1.08 GB

     Estimated total dynamical RAM >       4.33 GB

     Initial potential from superposition of free atoms

     starting charge  255.96421, renormalised to  256.00000
     Starting wfc are  256 randomized atomic wfcs
     Checking if some PAW data can be deallocated... 

     total cpu time spent up to now is       41.1 secs

     Self-consistent Calculation

     iteration #  1     ecut=    70.00 Ry     beta= 0.70
     Davidson diagonalization with overlap
     ethr =  1.00E-02,  avg # of iterations =  2.0

     Threshold (ethr) on eigenvalues was too large:
     Diagonalizing with lowered threshold

     Davidson diagonalization with overlap
     ethr =  6.98E-04,  avg # of iterations =  1.0

     total cpu time spent up to now is      155.9 secs

     total energy              =   -2990.46246353 Ry
     Harris-Foulkes estimate   =   -2990.88045011 Ry
     estimated scf accuracy    <       1.76648478 Ry

     iteration #  2     ecut=    70.00 Ry     beta= 0.70
     Davidson diagonalization with overlap
     ethr =  6.90E-04,  avg # of iterations =  1.0

     total cpu time spent up to now is      204.7 secs

     total energy              =   -2990.52627511 Ry
     Harris-Foulkes estimate   =   -2990.53058785 Ry
     estimated scf accuracy    <       0.07827828 Ry

     iteration #  3     ecut=    70.00 Ry     beta= 0.70
     Davidson diagonalization with overlap
     ethr =  3.06E-05,  avg # of iterations =  2.5

     total cpu time spent up to now is      262.1 secs

     total energy              =   -2990.53497536 Ry
     Harris-Foulkes estimate   =   -2990.53564139 Ry
     estimated scf accuracy    <       0.00178646 Ry

     iteration #  4     ecut=    70.00 Ry     beta= 0.70
     Davidson diagonalization with overlap
     ethr =  6.98E-07,  avg # of iterations =  3.2

     total cpu time spent up to now is      343.9 secs

     total energy              =   -2990.53556400 Ry
     Harris-Foulkes estimate   =   -2990.53622237 Ry
     estimated scf accuracy    <       0.00183370 Ry

     iteration #  5     ecut=    70.00 Ry     beta= 0.70
     Davidson diagonalization with overlap
     ethr =  6.98E-07,  avg # of iterations =  2.5

     total cpu time spent up to now is      404.3 secs

     total energy              =   -2990.53587795 Ry
     Harris-Foulkes estimate   =   -2990.53595146 Ry
     estimated scf accuracy    <       0.00021390 Ry

     iteration #  6     ecut=    70.00 Ry     beta= 0.70
     Davidson diagonalization with overlap
     ethr =  8.36E-08,  avg # of iterations =  3.0

     total cpu time spent up to now is      467.9 secs

     total energy              =   -2990.53591209 Ry
     Harris-Foulkes estimate   =   -2990.53593194 Ry
     estimated scf accuracy    <       0.00005403 Ry

     iteration #  7     ecut=    70.00 Ry     beta= 0.70
     Davidson diagonalization with overlap
     ethr =  2.11E-08,  avg # of iterations =  2.0

     total cpu time spent up to now is      528.8 secs

     total energy              =   -2990.53592193 Ry
     Harris-Foulkes estimate   =   -2990.53592256 Ry
     estimated scf accuracy    <       0.00000124 Ry

     iteration #  8     ecut=    70.00 Ry     beta= 0.70
     Davidson diagonalization with overlap
     ethr =  4.86E-10,  avg # of iterations =  3.0

     total cpu time spent up to now is      614.8 secs

     total energy              =   -2990.53592277 Ry
     Harris-Foulkes estimate   =   -2990.53592301 Ry
     estimated scf accuracy    <       0.00000031 Ry

     iteration #  9     ecut=    70.00 Ry     beta= 0.70
     Davidson diagonalization with overlap
     ethr =  1.20E-10,  avg # of iterations =  3.0

     total cpu time spent up to now is      677.6 secs

     total energy              =   -2990.53592272 Ry
     Harris-Foulkes estimate   =   -2990.53592284 Ry
     estimated scf accuracy    <       0.00000015 Ry

     iteration # 10     ecut=    70.00 Ry     beta= 0.70
     Davidson diagonalization with overlap
     ethr =  5.79E-11,  avg # of iterations =  3.0

     total cpu time spent up to now is      738.5 secs

     total energy              =   -2990.53592269 Ry
     Harris-Foulkes estimate   =   -2990.53592275 Ry
     estimated scf accuracy    <       0.00000003 Ry

     iteration # 11     ecut=    70.00 Ry     beta= 0.70
     Davidson diagonalization with overlap
     ethr =  1.14E-11,  avg # of iterations =  3.0

     total cpu time spent up to now is      801.6 secs

     total energy              =   -2990.53592270 Ry
     Harris-Foulkes estimate   =   -2990.53592269 Ry
     estimated scf accuracy    <          2.9E-09 Ry

     iteration # 12     ecut=    70.00 Ry     beta= 0.70
     Davidson diagonalization with overlap
     ethr =  1.14E-12,  avg # of iterations =  3.0

     total cpu time spent up to now is      875.7 secs

     End of self-consistent calculation

          k = 0.2500 0.2500 0.2500 ( 87251 PWs)   bands (ev):

    -5.6250  -5.0999  -5.0963  -5.0928  -4.6003  -4.5967  -4.5931  -4.1631
    -4.0667  -4.0634  -4.0601  -3.6545  -3.6503  -3.6471  -3.6469  -3.6437
    -3.6396  -3.4593  -3.4548  -3.4502  -2.9624  -2.9586  -2.9548  -2.5943
    -2.5893  -2.5841  -2.4281  -2.4238  -2.4208  -2.4207  -2.4177  -2.4133
    -0.8875  -0.8820  -0.8786  -0.8778  -0.8746  -0.8697  -0.7858  -0.7804
    -0.7751  -0.6676  -0.6623  -0.6563  -0.5836  -0.5761  -0.5684   0.1263
     0.2013   0.2058   0.2102   0.2111   0.2159   0.2202   1.0803   1.0853
     1.0903   1.4142   1.4183   1.4224   2.0255   2.0268   2.0275   2.0307
     2.0315   2.0324   2.0851   2.0881   2.0920   2.6372   2.6400   2.6430
     2.7372   2.7389   2.7423   2.7441   2.7472   2.7486   2.7934   2.7968
     2.7998   3.1010   3.1062   3.1071   3.1081   3.1090   3.1141   3.3697
     3.3721   3.3733   3.3822   3.3860   3.3903   3.7304   3.7347   3.7387
     3.7517   3.7563   3.7614   3.8359   3.8395   3.8432   4.1057   4.1109
     4.1139   4.1145   4.1176   4.1229   4.1495   4.1536   4.1579   4.4132
     4.4687   4.4711   4.4731   4.7103   4.7143   4.7186   4.7735   4.7787
     4.7848   4.9319   4.9406   5.2381   5.2435   5.2491   5.7191   5.7289

          k =-0.2500-0.2500 0.2500 ( 87251 PWs)   bands (ev):

    -5.6251  -5.0988  -5.0963  -5.0937  -4.5993  -4.5970  -4.5941  -4.1642
    -4.0663  -4.0637  -4.0613  -3.6524  -3.6492  -3.6488  -3.6474  -3.6420
    -3.6397  -3.4577  -3.4548  -3.4498  -2.9639  -2.9606  -2.9568  -2.5923
    -2.5890  -2.5854  -2.4261  -2.4239  -2.4228  -2.4212  -2.4161  -2.4125
    -0.8857  -0.8829  -0.8805  -0.8784  -0.8751  -0.8706  -0.7849  -0.7807
    -0.7782  -0.6677  -0.6626  -0.6611  -0.5766  -0.5755  -0.5632   0.1300
     0.2016   0.2049   0.2085   0.2105   0.2147   0.2154   1.0830   1.0866
     1.0937   1.4153   1.4184   1.4211   2.0251   2.0268   2.0280   2.0297
     2.0312   2.0326   2.0843   2.0865   2.0912   2.6400   2.6426   2.6435
     2.7366   2.7375   2.7406   2.7435   2.7450   2.7470   2.7912   2.7947
     2.7973   3.1035   3.1055   3.1064   3.1077   3.1106   3.1128   3.3670
     3.3713   3.3726   3.3826   3.3852   3.3875   3.7338   3.7361   3.7392
     3.7563   3.7611   3.7622   3.8350   3.8391   3.8408   4.1124   4.1134
     4.1146   4.1161   4.1210   4.1241   4.1484   4.1533   4.1556   4.4173
     4.4647   4.4699   4.4713   4.7086   4.7137   4.7150   4.7792   4.7812
     4.7908   4.9324   4.9376   5.2355   5.2426   5.2442   5.7188   5.7244

          k =-0.2500 0.2500-0.2500 ( 87251 PWs)   bands (ev):

    -5.6250  -5.0974  -5.0964  -5.0953  -4.5977  -4.5967  -4.5958  -4.1632
    -4.0649  -4.0634  -4.0618  -3.6554  -3.6494  -3.6475  -3.6465  -3.6446
    -3.6389  -3.4593  -3.4549  -3.4502  -2.9618  -2.9585  -2.9554  -2.5944
    -2.5891  -2.5842  -2.4293  -2.4238  -2.4209  -2.4206  -2.4179  -2.4121
    -0.8883  -0.8817  -0.8784  -0.8779  -0.8748  -0.8687  -0.7860  -0.7805
    -0.7751  -0.6676  -0.6623  -0.6564  -0.5830  -0.5762  -0.5689   0.1263
     0.2009   0.2064   0.2094   0.2120   0.2149   0.2207   1.0793   1.0853
     1.0914   1.4138   1.4184   1.4227   2.0233   2.0277   2.0288   2.0296
     2.0306   2.0341   2.0852   2.0881   2.0921   2.6372   2.6400   2.6430
     2.7366   2.7388   2.7426   2.7438   2.7470   2.7491   2.7924   2.7966
     2.8013   3.1025   3.1049   3.1069   3.1083   3.1103   3.1125   3.3700
     3.3716   3.3735   3.3823   3.3861   3.3902   3.7327   3.7348   3.7364
     3.7516   3.7565   3.7613   3.8362   3.8396   3.8426   4.1065   4.1127
     4.1131   4.1153   4.1156   4.1219   4.1500   4.1539   4.1577   4.4132
     4.4687   4.4710   4.4731   4.7107   4.7142   4.7182   4.7730   4.7787
     4.7853   4.9319   4.9406   5.2384   5.2435   5.2488   5.7191   5.7289

          k = 0.2500-0.2500-0.2500 ( 87251 PWs)   bands (ev):

    -5.6250  -5.0992  -5.0964  -5.0938  -4.5994  -4.5965  -4.5942  -4.1621
    -4.0657  -4.0631  -4.0604  -3.6544  -3.6525  -3.6465  -3.6452  -3.6449
    -3.6417  -3.4595  -3.4549  -3.4520  -2.9602  -2.9564  -2.9534  -2.5936
    -2.5893  -2.5860  -2.4286  -2.4253  -2.4205  -2.4188  -2.4177  -2.4154
    -0.8871  -0.8816  -0.8777  -0.8758  -0.8739  -0.8713  -0.7828  -0.7796
    -0.7761  -0.6630  -0.6621  -0.6559  -0.5885  -0.5769  -0.5757   0.1226
     0.2062   0.2066   0.2109   0.2130   0.2166   0.2203   1.0769   1.0842
     1.0877   1.4154   1.4183   1.4214   2.0249   2.0267   2.0287   2.0303
     2.0315   2.0328   2.0868   2.0899   2.0921   2.6366   2.6376   2.6402
     2.7394   2.7412   2.7424   2.7454   2.7486   2.7491   2.7961   2.7986
     2.8020   3.1022   3.1045   3.1074   3.1088   3.1098   3.1118   3.3709
     3.3723   3.3750   3.3848   3.3872   3.3908   3.7288   3.7330   3.7358
     3.7507   3.7529   3.7566   3.8383   3.8397   3.8439   4.1041   4.1072
     4.1127   4.1140   4.1151   4.1158   4.1525   4.1539   4.1587   4.4091
     4.4708   4.4719   4.4771   4.7138   4.7150   4.7205   4.7679   4.7763
     4.7781   4.9350   4.9399   5.2429   5.2443   5.2518   5.7235   5.7293

     highest occupied level (ev):     5.7293

!    total energy              =   -2990.53592270 Ry
     Harris-Foulkes estimate   =   -2990.53592270 Ry
     estimated scf accuracy    <          9.7E-10 Ry

     total all-electron energy =    -37124.671476 Ry

     The total energy is the sum of the following terms:

     one-electron contribution =     178.60409470 Ry
     hartree contribution      =      35.70175063 Ry
     xc contribution           =    -391.44049441 Ry
     ewald contribution        =    -534.00626694 Ry
     one-center paw contrib.   =   -2279.39500667 Ry

     convergence has been achieved in  12 iterations

     Forces acting on atoms (cartesian axes, Ry/au):

     atom    1 type  1   force =    -0.01594258    0.00000952   -0.00004241
     atom    2 type  1   force =     0.00009876   -0.00000994   -0.00004301
     atom    3 type  1   force =     0.00028096    0.00010940   -0.00023135
     atom    4 type  1   force =    -0.00023449   -0.00010849   -0.00023091
     atom    5 type  1   force =     0.00013051    0.00000959   -0.00004074
     atom    6 type  1   force =    -0.00008424   -0.00000982   -0.00004236
     atom    7 type  1   force =    -0.00070762    0.00011408   -0.00023854
     atom    8 type  1   force =     0.00025718   -0.00011433   -0.00023763
     atom    9 type  1   force =    -0.00041390    0.00000066    0.00064055
     atom   10 type  1   force =     0.00010831    0.00011932    0.00053419
     atom   11 type  1   force =    -0.00063552   -0.00000200    0.00041349
     atom   12 type  1   force =    -0.00011213    0.00012344    0.00051879
     atom   13 type  1   force =    -0.00051296   -0.00011911    0.00011073
     atom   14 type  1   force =     0.00000875   -0.00000019    0.00000895
     atom   15 type  1   force =    -0.00053840   -0.00012353   -0.00011321
     atom   16 type  1   force =    -0.00000957    0.00000050   -0.00000859
     atom   17 type  1   force =     0.00023174   -0.00010883    0.00070164
     atom   18 type  1   force =     0.00023757   -0.00011553   -0.00028732
     atom   19 type  1   force =     0.00004171   -0.00001009   -0.00013168
     atom   20 type  1   force =     0.00004314   -0.00000847    0.01594301
     atom   21 type  1   force =     0.00023083    0.00011009   -0.00025120
     atom   22 type  1   force =     0.00023803    0.00011376    0.00024068
     atom   23 type  1   force =     0.00004206    0.00000820    0.00008522
     atom   24 type  1   force =     0.00004285    0.00001066   -0.00009755
     atom   25 type  1   force =     0.00022094    0.00030484   -0.00015306
     atom   26 type  1   force =     0.00012936   -0.00045941   -0.00034558
     atom   27 type  1   force =     0.00024016   -0.00030446    0.00006664
     atom   28 type  1   force =     0.00034713    0.00045922   -0.00011743
     atom   29 type  1   force =     0.00003303   -0.00015316   -0.00005123
     atom   30 type  1   force =    -0.00007221    0.00030980   -0.00024707
     atom   31 type  1   force =     0.00005250    0.00015343   -0.00003200
     atom   32 type  1   force =     0.00015621   -0.00030933   -0.00022911
     atom   33 type  1   force =    -0.00006030    0.00008092    0.00009211
     atom   34 type  1   force =    -0.00244910    0.00273431   -0.00390179
     atom   35 type  1   force =    -0.00000090    0.00005453   -0.00023009
     atom   36 type  1   force =    -0.00011262    0.00008755    0.00009907
     atom   37 type  1   force =    -0.00000079    0.00005150    0.00000008
     atom   38 type  1   force =    -0.00009819    0.00007763    0.00006457
     atom   39 type  1   force =    -0.00004424    0.00006964    0.00006001
     atom   40 type  1   force =     0.00390236    0.00272837    0.00267831
     atom   41 type  1   force =     0.00001404   -0.00001082   -0.00029094
     atom   42 type  1   force =     0.00398167   -0.00266653   -0.00264594
     atom   43 type  1   force =     0.00006379    0.00002619    0.00003158
     atom   44 type  1   force =     0.00242124    0.00244286   -0.00386032
     atom   45 type  1   force =     0.00005620    0.00000458   -0.00000260
     atom   46 type  1   force =    -0.00003103   -0.00002380   -0.00006566
     atom   47 type  1   force =     0.00000512   -0.00000226   -0.00005898
     atom   48 type  1   force =     0.00029303    0.00001005   -0.00001480
     atom   49 type  1   force =    -0.00009710   -0.00008886    0.00011021
     atom   50 type  1   force =    -0.00245323   -0.00250749   -0.00378142
     atom   51 type  1   force =     0.00378211   -0.00250878    0.00222689
     atom   52 type  1   force =    -0.00006397   -0.00007652    0.00009714
     atom   53 type  1   force =     0.00022606   -0.00005743    0.00000090
     atom   54 type  1   force =    -0.00006036   -0.00006841    0.00004276
     atom   55 type  1   force =    -0.00008966   -0.00008194    0.00006049
     atom   56 type  1   force =    -0.00000123   -0.00005665   -0.00000070
     atom   57 type  1   force =    -0.00002992    0.00002475   -0.00029283
     atom   58 type  1   force =     0.00007740   -0.00000962    0.00003414
     atom   59 type  1   force =     0.00029010   -0.00002393    0.00003296
     atom   60 type  1   force =     0.00268305   -0.00267263   -0.00396018
     atom   61 type  1   force =     0.00384167    0.00245141   -0.00246049
     atom   62 type  1   force =     0.00001374    0.00001208   -0.00006402
     atom   63 type  1   force =    -0.00003435    0.00001058   -0.00007705
     atom   64 type  1   force =     0.00006730   -0.00001110   -0.00001530

     Total force =     0.027185     Total SCF correction =     0.000057


     Computing stress (Cartesian axis) and pressure

          total   stress  (Ry/bohr**3)                   (kbar)     P=    0.12
   0.00000074  -0.00000238   0.00000000          0.11     -0.35      0.00
  -0.00000238   0.00000089   0.00000238         -0.35      0.13      0.35
   0.00000000   0.00000238   0.00000074          0.00      0.35      0.11


     init_run     :     40.22s CPU     41.05s WALL (       1 calls)
     electrons    :    815.24s CPU    834.54s WALL (       1 calls)
     forces       :     11.64s CPU     11.87s WALL (       1 calls)
     stress       :     56.61s CPU     56.92s WALL (       1 calls)

     Called by init_run:
     wfcinit      :     37.14s CPU     37.85s WALL (       1 calls)
     potinit      :      1.06s CPU      1.09s WALL (       1 calls)

     Called by electrons:
     c_bands      :    676.91s CPU    693.19s WALL (      13 calls)
     sum_band     :    122.89s CPU    125.12s WALL (      13 calls)
     v_of_rho     :      5.06s CPU      5.18s WALL (      13 calls)
     newd         :      2.74s CPU      3.46s WALL (      13 calls)
     PAW_pot      :      7.60s CPU      7.58s WALL (      13 calls)
     mix_rho      :      1.08s CPU      1.11s WALL (      13 calls)

     Called by c_bands:
     init_us_2    :      7.22s CPU      7.26s WALL (     116 calls)
     cegterg      :    663.14s CPU    679.39s WALL (      52 calls)

     Called by sum_band:
     sum_band:bec :      0.01s CPU      0.02s WALL (      52 calls)
     addusdens    :      3.30s CPU      4.04s WALL (      13 calls)

     Called by *egterg:
     h_psi        :    591.96s CPU    602.40s WALL (     185 calls)
     s_psi        :     34.05s CPU     34.08s WALL (     185 calls)
     g_psi        :      1.18s CPU      1.19s WALL (     129 calls)
     cdiaghg      :      4.18s CPU      4.20s WALL (     177 calls)

     Called by h_psi:
     h_psi:pot    :    588.16s CPU    598.55s WALL (     185 calls)
     h_psi:calbec :     33.97s CPU     34.02s WALL (     185 calls)
     vloc_psi     :    520.26s CPU    530.60s WALL (     185 calls)
     add_vuspsi   :     33.93s CPU     33.92s WALL (     185 calls)

     General routines
     calbec       :     50.45s CPU     50.53s WALL (     257 calls)
     fft          :      4.35s CPU      4.54s WALL (     196 calls)
     fftw         :    526.02s CPU    537.43s WALL (   45622 calls)

     Parallel routines
     fft_scatt_xy :     88.89s CPU     88.96s WALL (   45818 calls)
     fft_scatt_yz :     97.50s CPU    103.81s WALL (   45818 calls)

     PWSCF        : 15m23.81s CPU    15m44.50s WALL


   This run was terminated on:   4:43:44  25Oct2021            

=------------------------------------------------------------------------------=
   JOB DONE.
=------------------------------------------------------------------------------=
Note: The following floating-point exceptions are signalling: IEEE_UNDERFLOW_FLAG IEEE_DENORMAL
