
     Program PWSCF v.6.2 (svn rev. 13949:13950) starts on 24Oct2021 at 16: 6:38 

     This program is part of the open-source Quantum ESPRESSO suite
     for quantum simulation of materials; please cite
         "P. Giannozzi et al., J. Phys.:Condens. Matter 21 395502 (2009);
         "P. Giannozzi et al., J. Phys.:Condens. Matter 29 465901 (2017);
          URL http://www.quantum-espresso.org", 
     in publications or presentations arising from this work. More details at
     http://www.quantum-espresso.org/quote

     Parallel version (MPI), running on     4 processors

     MPI processes distributed on     1 nodes
     R & G space division:  proc/nbgrp/npool/nimage =       4
     Reading input from headeradd_supercell-00009.in

     Current dimensions of program PWSCF are:
     Max number of different atomic species (ntypx) = 10
     Max number of k-points (npk) =  40000
     Max angular momentum in pseudopotentials (lmaxx) =  3
     Message from routine iosys:
     minimal I/O required, wf_collect reset to FALSE
               file Si.pbe-n-kjpaw_psl.0.1.UPF: wavefunction(s)  3S renormalized

     Subspace diagonalization in iterative solution of the eigenvalue problem:
     a serial algorithm will be used


     Parallelization info
     --------------------
     sticks:   dense  smooth     PW     G-vecs:    dense   smooth      PW
     Min        2372    2372    612               174341   174341   22844
     Max        2374    2374    613               174344   174344   22847
     Sum        9493    9493   2449               697371   697371   91383



     bravais-lattice index     =            0
     lattice parameter (alat)  =      20.6591  a.u.
     unit-cell volume          =    8817.2783 (a.u.)^3
     number of atoms/cell      =           64
     number of atomic types    =            1
     number of electrons       =       256.00
     number of Kohn-Sham states=          128
     kinetic-energy cutoff     =      70.0000  Ry
     charge density cutoff     =     280.0000  Ry
     convergence threshold     =      1.0E-09
     mixing beta               =       0.7000
     number of iterations used =            8  plain     mixing
     Exchange-correlation      =  SLA  PW   PBX  PBC ( 1  4  3  4 0 0)

     celldm(1)=  20.659106  celldm(2)=   0.000000  celldm(3)=   0.000000
     celldm(4)=   0.000000  celldm(5)=   0.000000  celldm(6)=   0.000000

     crystal axes: (cart. coord. in units of alat)
               a(1) = (   1.000000   0.000000   0.000000 )  
               a(2) = (   0.000000   1.000000   0.000000 )  
               a(3) = (   0.000000   0.000000   1.000000 )  

     reciprocal axes: (cart. coord. in units 2 pi/alat)
               b(1) = (  1.000000  0.000000  0.000000 )  
               b(2) = (  0.000000  1.000000  0.000000 )  
               b(3) = (  0.000000  0.000000  1.000000 )  


     PseudoPot. # 1 for Si read from file:
     /home/uezono/pseudo/Si.pbe-n-kjpaw_psl.0.1.UPF
     MD5 check sum: 0810ef13ebffcf5dbabd57b297315270
     Pseudo is Projector augmented-wave + core cor, Zval =  4.0
     Generated using "atomic" code by A. Dal Corso  v.5.0.2 svn rev. 9415
     Shape of augmentation charge: PSQ
     Using radial grid of 1141 points,  4 beta functions with: 
                l(1) =   0
                l(2) =   0
                l(3) =   1
                l(4) =   1
     Q(r) pseudized with 0 coefficients 


     atomic species   valence    mass     pseudopotential
        Si             4.00    28.08550     Si( 1.00)

     No symmetry found



   Cartesian axes

     site n.     atom                  positions (alat units)
         1           Si  tau(   1) = (   0.4404043   0.4375000   0.4375000  )
         2           Si  tau(   2) = (   0.9375000   0.4375000   0.4375000  )
         3           Si  tau(   3) = (   0.4375000   0.9375000   0.4375000  )
         4           Si  tau(   4) = (   0.9395536   0.9395536   0.4375000  )
         5           Si  tau(   5) = (   0.4375000   0.4375000   0.9375000  )
         6           Si  tau(   6) = (   0.9375000   0.4375000   0.9375000  )
         7           Si  tau(   7) = (   0.4375000   0.9375000   0.9375000  )
         8           Si  tau(   8) = (   0.9375000   0.9375000   0.9375000  )
         9           Si  tau(   9) = (   0.4375000   0.1875000   0.1875000  )
        10           Si  tau(  10) = (   0.9375000   0.1875000   0.1875000  )
        11           Si  tau(  11) = (   0.4375000   0.6875000   0.1875000  )
        12           Si  tau(  12) = (   0.9375000   0.6875000   0.1875000  )
        13           Si  tau(  13) = (   0.4375000   0.1875000   0.6875000  )
        14           Si  tau(  14) = (   0.9375000   0.1875000   0.6875000  )
        15           Si  tau(  15) = (   0.4375000   0.6875000   0.6875000  )
        16           Si  tau(  16) = (   0.9375000   0.6875000   0.6875000  )
        17           Si  tau(  17) = (   0.1875000   0.4375000   0.1875000  )
        18           Si  tau(  18) = (   0.6875000   0.4375000   0.1875000  )
        19           Si  tau(  19) = (   0.1875000   0.9375000   0.1875000  )
        20           Si  tau(  20) = (   0.6875000   0.9375000   0.1875000  )
        21           Si  tau(  21) = (   0.1875000   0.4375000   0.6875000  )
        22           Si  tau(  22) = (   0.6875000   0.4375000   0.6875000  )
        23           Si  tau(  23) = (   0.1875000   0.9375000   0.6875000  )
        24           Si  tau(  24) = (   0.6875000   0.9375000   0.6875000  )
        25           Si  tau(  25) = (   0.1875000   0.1875000   0.4375000  )
        26           Si  tau(  26) = (   0.6875000   0.1875000   0.4375000  )
        27           Si  tau(  27) = (   0.1875000   0.6875000   0.4375000  )
        28           Si  tau(  28) = (   0.6875000   0.6875000   0.4375000  )
        29           Si  tau(  29) = (   0.1875000   0.1875000   0.9375000  )
        30           Si  tau(  30) = (   0.6875000   0.1875000   0.9375000  )
        31           Si  tau(  31) = (   0.1875000   0.6875000   0.9375000  )
        32           Si  tau(  32) = (   0.6875000   0.6875000   0.9375000  )
        33           Si  tau(  33) = (   0.0625000   0.0625000   0.0625000  )
        34           Si  tau(  34) = (   0.5625000   0.0625000   0.0625000  )
        35           Si  tau(  35) = (   0.0625000   0.5625000   0.0625000  )
        36           Si  tau(  36) = (   0.5625000   0.5625000   0.0625000  )
        37           Si  tau(  37) = (   0.0625000   0.0625000   0.5625000  )
        38           Si  tau(  38) = (   0.5625000   0.0625000   0.5625000  )
        39           Si  tau(  39) = (   0.0625000   0.5625000   0.5625000  )
        40           Si  tau(  40) = (   0.5625000   0.5625000   0.5625000  )
        41           Si  tau(  41) = (   0.0625000   0.3125000   0.3125000  )
        42           Si  tau(  42) = (   0.5625000   0.3125000   0.3125000  )
        43           Si  tau(  43) = (   0.0625000   0.8125000   0.3125000  )
        44           Si  tau(  44) = (   0.5625000   0.8125000   0.3125000  )
        45           Si  tau(  45) = (   0.0625000   0.3125000   0.8125000  )
        46           Si  tau(  46) = (   0.5625000   0.3125000   0.8125000  )
        47           Si  tau(  47) = (   0.0625000   0.8125000   0.8125000  )
        48           Si  tau(  48) = (   0.5625000   0.8125000   0.8125000  )
        49           Si  tau(  49) = (   0.3125000   0.0625000   0.3125000  )
        50           Si  tau(  50) = (   0.8125000   0.0625000   0.3125000  )
        51           Si  tau(  51) = (   0.3125000   0.5625000   0.3125000  )
        52           Si  tau(  52) = (   0.8125000   0.5625000   0.3125000  )
        53           Si  tau(  53) = (   0.3125000   0.0625000   0.8125000  )
        54           Si  tau(  54) = (   0.8125000   0.0625000   0.8125000  )
        55           Si  tau(  55) = (   0.3125000   0.5625000   0.8125000  )
        56           Si  tau(  56) = (   0.8125000   0.5625000   0.8125000  )
        57           Si  tau(  57) = (   0.3125000   0.3125000   0.0625000  )
        58           Si  tau(  58) = (   0.8125000   0.3125000   0.0625000  )
        59           Si  tau(  59) = (   0.3125000   0.8125000   0.0625000  )
        60           Si  tau(  60) = (   0.8125000   0.8125000   0.0625000  )
        61           Si  tau(  61) = (   0.3125000   0.3125000   0.5625000  )
        62           Si  tau(  62) = (   0.8125000   0.3125000   0.5625000  )
        63           Si  tau(  63) = (   0.3125000   0.8125000   0.5625000  )
        64           Si  tau(  64) = (   0.8125000   0.8125000   0.5625000  )

     number of k points=     4
                       cart. coord. in units 2pi/alat
        k(    1) = (   0.2500000   0.2500000   0.2500000), wk =   0.5000000
        k(    2) = (  -0.2500000  -0.2500000   0.2500000), wk =   0.5000000
        k(    3) = (  -0.2500000   0.2500000  -0.2500000), wk =   0.5000000
        k(    4) = (   0.2500000  -0.2500000  -0.2500000), wk =   0.5000000

     Dense  grid:   697371 G-vectors     FFT dimensions: ( 120, 120, 120)

     Estimated max dynamical RAM per process >       1.08 GB

     Estimated total dynamical RAM >       4.33 GB

     Initial potential from superposition of free atoms

     starting charge  255.96421, renormalised to  256.00000
     Starting wfc are  256 randomized atomic wfcs
     Checking if some PAW data can be deallocated... 

     total cpu time spent up to now is       41.2 secs

     Self-consistent Calculation

     iteration #  1     ecut=    70.00 Ry     beta= 0.70
     Davidson diagonalization with overlap
     ethr =  1.00E-02,  avg # of iterations =  2.0

     Threshold (ethr) on eigenvalues was too large:
     Diagonalizing with lowered threshold

     Davidson diagonalization with overlap
     ethr =  6.98E-04,  avg # of iterations =  1.0

     total cpu time spent up to now is      155.9 secs

     total energy              =   -2990.46249616 Ry
     Harris-Foulkes estimate   =   -2990.88042721 Ry
     estimated scf accuracy    <       1.76638282 Ry

     iteration #  2     ecut=    70.00 Ry     beta= 0.70
     Davidson diagonalization with overlap
     ethr =  6.90E-04,  avg # of iterations =  1.0

     total cpu time spent up to now is      204.6 secs

     total energy              =   -2990.52627979 Ry
     Harris-Foulkes estimate   =   -2990.53059320 Ry
     estimated scf accuracy    <       0.07828251 Ry

     iteration #  3     ecut=    70.00 Ry     beta= 0.70
     Davidson diagonalization with overlap
     ethr =  3.06E-05,  avg # of iterations =  2.8

     total cpu time spent up to now is      262.0 secs

     total energy              =   -2990.53497353 Ry
     Harris-Foulkes estimate   =   -2990.53564609 Ry
     estimated scf accuracy    <       0.00179325 Ry

     iteration #  4     ecut=    70.00 Ry     beta= 0.70
     Davidson diagonalization with overlap
     ethr =  7.00E-07,  avg # of iterations =  3.5

     total cpu time spent up to now is      344.5 secs

     total energy              =   -2990.53554388 Ry
     Harris-Foulkes estimate   =   -2990.53625059 Ry
     estimated scf accuracy    <       0.00200464 Ry

     iteration #  5     ecut=    70.00 Ry     beta= 0.70
     Davidson diagonalization with overlap
     ethr =  7.00E-07,  avg # of iterations =  3.0

     total cpu time spent up to now is      405.5 secs

     total energy              =   -2990.53588231 Ry
     Harris-Foulkes estimate   =   -2990.53595494 Ry
     estimated scf accuracy    <       0.00021099 Ry

     iteration #  6     ecut=    70.00 Ry     beta= 0.70
     Davidson diagonalization with overlap
     ethr =  8.24E-08,  avg # of iterations =  3.0

     total cpu time spent up to now is      469.3 secs

     total energy              =   -2990.53591587 Ry
     Harris-Foulkes estimate   =   -2990.53593596 Ry
     estimated scf accuracy    <       0.00005470 Ry

     iteration #  7     ecut=    70.00 Ry     beta= 0.70
     Davidson diagonalization with overlap
     ethr =  2.14E-08,  avg # of iterations =  2.0

     total cpu time spent up to now is      530.1 secs

     total energy              =   -2990.53592578 Ry
     Harris-Foulkes estimate   =   -2990.53592646 Ry
     estimated scf accuracy    <       0.00000140 Ry

     iteration #  8     ecut=    70.00 Ry     beta= 0.70
     Davidson diagonalization with overlap
     ethr =  5.48E-10,  avg # of iterations =  3.0

     total cpu time spent up to now is      615.3 secs

     total energy              =   -2990.53592664 Ry
     Harris-Foulkes estimate   =   -2990.53592689 Ry
     estimated scf accuracy    <       0.00000037 Ry

     iteration #  9     ecut=    70.00 Ry     beta= 0.70
     Davidson diagonalization with overlap
     ethr =  1.46E-10,  avg # of iterations =  3.0

     total cpu time spent up to now is      677.0 secs

     total energy              =   -2990.53592658 Ry
     Harris-Foulkes estimate   =   -2990.53592673 Ry
     estimated scf accuracy    <       0.00000020 Ry

     iteration # 10     ecut=    70.00 Ry     beta= 0.70
     Davidson diagonalization with overlap
     ethr =  7.82E-11,  avg # of iterations =  2.5

     total cpu time spent up to now is      736.6 secs

     total energy              =   -2990.53592655 Ry
     Harris-Foulkes estimate   =   -2990.53592662 Ry
     estimated scf accuracy    <       0.00000003 Ry

     iteration # 11     ecut=    70.00 Ry     beta= 0.70
     Davidson diagonalization with overlap
     ethr =  9.81E-12,  avg # of iterations =  3.0

     total cpu time spent up to now is      801.3 secs

     total energy              =   -2990.53592656 Ry
     Harris-Foulkes estimate   =   -2990.53592656 Ry
     estimated scf accuracy    <          3.7E-09 Ry

     iteration # 12     ecut=    70.00 Ry     beta= 0.70
     Davidson diagonalization with overlap
     ethr =  1.46E-12,  avg # of iterations =  3.0

     total cpu time spent up to now is      875.8 secs

     total energy              =   -2990.53592656 Ry
     Harris-Foulkes estimate   =   -2990.53592656 Ry
     estimated scf accuracy    <          1.9E-09 Ry

     iteration # 13     ecut=    70.00 Ry     beta= 0.70
     Davidson diagonalization with overlap
     ethr =  7.29E-13,  avg # of iterations =  3.0

     total cpu time spent up to now is      939.4 secs

     End of self-consistent calculation

          k = 0.2500 0.2500 0.2500 ( 87251 PWs)   bands (ev):

    -5.6250  -5.0983  -5.0970  -5.0941  -4.5985  -4.5972  -4.5944  -4.1618
    -4.0651  -4.0630  -4.0606  -3.6570  -3.6487  -3.6473  -3.6469  -3.6434
    -3.6425  -3.4615  -3.4540  -3.4515  -2.9596  -2.9562  -2.9529  -2.5953
    -2.5883  -2.5854  -2.4302  -2.4220  -2.4210  -2.4207  -2.4175  -2.4156
    -0.8853  -0.8804  -0.8786  -0.8778  -0.8740  -0.8699  -0.7847  -0.7785
    -0.7755  -0.6649  -0.6611  -0.6541  -0.5878  -0.5799  -0.5759   0.1219
     0.2048   0.2099   0.2104   0.2108   0.2160   0.2235   1.0796   1.0815
     1.0863   1.4143   1.4192   1.4216   2.0244   2.0277   2.0284   2.0306
     2.0318   2.0325   2.0861   2.0909   2.0920   2.6341   2.6390   2.6401
     2.7390   2.7427   2.7436   2.7459   2.7472   2.7498   2.7954   2.8000
     2.8026   3.1024   3.1046   3.1061   3.1086   3.1096   3.1128   3.3716
     3.3726   3.3751   3.3836   3.3882   3.3916   3.7295   3.7317   3.7347
     3.7471   3.7546   3.7571   3.8387   3.8396   3.8443   4.0996   4.1101
     4.1116   4.1134   4.1150   4.1161   4.1529   4.1536   4.1592   4.4081
     4.4715   4.4723   4.4776   4.7142   4.7151   4.7213   4.7690   4.7728
     4.7776   4.9340   4.9414   5.2435   5.2443   5.2529   5.7226   5.7311

          k =-0.2500-0.2500 0.2500 ( 87251 PWs)   bands (ev):

    -5.6251  -5.0985  -5.0958  -5.0943  -4.5992  -4.5964  -4.5948  -4.1643
    -4.0661  -4.0636  -4.0617  -3.6517  -3.6507  -3.6469  -3.6466  -3.6458
    -3.6370  -3.4583  -3.4555  -3.4482  -2.9642  -2.9608  -2.9574  -2.5930
    -2.5901  -2.5832  -2.4262  -2.4241  -2.4209  -2.4206  -2.4193  -2.4115
    -0.8869  -0.8826  -0.8782  -0.8774  -0.8763  -0.8716  -0.7863  -0.7823
    -0.7763  -0.6696  -0.6635  -0.6596  -0.5765  -0.5721  -0.5640   0.1309
     0.1982   0.2055   0.2106   0.2111   0.2116   0.2167   1.0845   1.0892
     1.0912   1.4151   1.4175   1.4222   2.0256   2.0262   2.0276   2.0300
     2.0307   2.0334   2.0843   2.0854   2.0911   2.6401   2.6412   2.6458
     2.7357   2.7390   2.7405   2.7429   2.7439   2.7472   2.7913   2.7934
     2.7971   3.1025   3.1055   3.1065   3.1090   3.1104   3.1126   3.3667
     3.3714   3.3722   3.3825   3.3837   3.3884   3.7347   3.7376   3.7381
     3.7560   3.7579   3.7674   3.8344   3.8394   3.8404   4.1124   4.1136
     4.1149   4.1170   4.1188   4.1284   4.1479   4.1535   4.1551   4.4179
     4.4644   4.4700   4.4703   4.7079   4.7138   4.7145   4.7797   4.7851
     4.7896   4.9309   4.9385   5.2345   5.2425   5.2436   5.7168   5.7252

          k =-0.2500 0.2500-0.2500 ( 87251 PWs)   bands (ev):

    -5.6251  -5.1006  -5.0960  -5.0923  -4.6009  -4.5963  -4.5929  -4.1636
    -4.0680  -4.0634  -4.0594  -3.6542  -3.6505  -3.6484  -3.6467  -3.6428
    -3.6381  -3.4592  -3.4562  -3.4479  -2.9641  -2.9593  -2.9552  -2.5944
    -2.5907  -2.5821  -2.4281  -2.4240  -2.4222  -2.4208  -2.4169  -2.4117
    -0.8867  -0.8824  -0.8809  -0.8780  -0.8728  -0.8705  -0.7868  -0.7825
    -0.7737  -0.6695  -0.6634  -0.6555  -0.5777  -0.5758  -0.5685   0.1282
     0.2025   0.2046   0.2065   0.2110   0.2166   0.2186   1.0828   1.0865
     1.0905   1.4139   1.4172   1.4237   2.0239   2.0266   2.0273   2.0296
     2.0315   2.0348   2.0853   2.0876   2.0910   2.6383   2.6402   2.6447
     2.7355   2.7383   2.7426   2.7445   2.7454   2.7474   2.7919   2.7949
     2.8002   3.1020   3.1039   3.1067   3.1092   3.1111   3.1128   3.3675
     3.3718   3.3742   3.3812   3.3848   3.3906   3.7325   3.7363   3.7382
     3.7542   3.7565   3.7631   3.8356   3.8400   3.8414   4.1093   4.1118
     4.1138   4.1158   4.1179   4.1246   4.1495   4.1539   4.1565   4.4147
     4.4652   4.4705   4.4739   4.7098   4.7142   4.7163   4.7782   4.7800
     4.7858   4.9302   4.9411   5.2374   5.2432   5.2459   5.7167   5.7289

          k = 0.2500-0.2500-0.2500 ( 87251 PWs)   bands (ev):

    -5.6250  -5.1004  -5.0967  -5.0921  -4.6004  -4.5971  -4.5925  -4.1626
    -4.0675  -4.0634  -4.0588  -3.6560  -3.6514  -3.6472  -3.6455  -3.6435
    -3.6400  -3.4616  -3.4534  -3.4504  -2.9620  -2.9580  -2.9530  -2.5966
    -2.5876  -2.5841  -2.4301  -2.4244  -2.4209  -2.4194  -2.4175  -2.4134
    -0.8860  -0.8845  -0.8781  -0.8755  -0.8741  -0.8703  -0.7876  -0.7783
    -0.7744  -0.6681  -0.6611  -0.6539  -0.5837  -0.5765  -0.5747   0.1245
     0.2028   0.2048   0.2103   0.2149   0.2171   0.2189   1.0803   1.0842
     1.0880   1.4127   1.4195   1.4227   2.0227   2.0268   2.0287   2.0310
     2.0315   2.0338   2.0864   2.0891   2.0917   2.6355   2.6401   2.6418
     2.7385   2.7406   2.7419   2.7439   2.7473   2.7493   2.7928   2.7987
     2.8024   3.1022   3.1039   3.1059   3.1084   3.1110   3.1133   3.3694
     3.3722   3.3756   3.3813   3.3882   3.3909   3.7308   3.7332   3.7372
     3.7497   3.7563   3.7583   3.8376   3.8397   3.8432   4.1034   4.1107
     4.1126   4.1147   4.1167   4.1189   4.1518   4.1535   4.1583   4.4106
     4.4690   4.4711   4.4765   4.7125   4.7147   4.7191   4.7724   4.7776
     4.7796   4.9315   4.9422   5.2411   5.2440   5.2498   5.7191   5.7313

     highest occupied level (ev):     5.7313

!    total energy              =   -2990.53592656 Ry
     Harris-Foulkes estimate   =   -2990.53592656 Ry
     estimated scf accuracy    <          3.9E-10 Ry

     total all-electron energy =    -37124.671480 Ry

     The total energy is the sum of the following terms:

     one-electron contribution =     178.60417949 Ry
     hartree contribution      =      35.70171149 Ry
     xc contribution           =    -391.44049677 Ry
     ewald contribution        =    -534.00631125 Ry
     one-center paw contrib.   =   -2279.39500952 Ry

     convergence has been achieved in  13 iterations

     Forces acting on atoms (cartesian axes, Ry/au):

     atom    1 type  1   force =    -0.01587181   -0.00000473    0.00000037
     atom    2 type  1   force =     0.00006086    0.00001590    0.00000032
     atom    3 type  1   force =     0.00006985    0.00003818    0.00000097
     atom    4 type  1   force =    -0.01124498   -0.01123844   -0.00060780
     atom    5 type  1   force =     0.00007114    0.00001675    0.00000020
     atom    6 type  1   force =    -0.00034210   -0.00000527    0.00000022
     atom    7 type  1   force =    -0.00048048   -0.00033545    0.00000015
     atom    8 type  1   force =     0.00006306    0.00003873   -0.00000033
     atom    9 type  1   force =    -0.00053631    0.00015110    0.00016075
     atom   10 type  1   force =    -0.00045096    0.00025293   -0.00023417
     atom   11 type  1   force =    -0.00053113    0.00014609   -0.00015705
     atom   12 type  1   force =    -0.00045066    0.00025610    0.00023054
     atom   13 type  1   force =    -0.00051778   -0.00008663    0.00004878
     atom   14 type  1   force =    -0.00029260    0.00007865    0.00009277
     atom   15 type  1   force =    -0.00052148   -0.00009006   -0.00005335
     atom   16 type  1   force =    -0.00029294    0.00007611   -0.00009401
     atom   17 type  1   force =     0.00026838   -0.00011709    0.00027406
     atom   18 type  1   force =     0.00027398   -0.00012108   -0.00028068
     atom   19 type  1   force =     0.00028601   -0.00045992   -0.00032051
     atom   20 type  1   force =     0.00028880   -0.00046074    0.00031643
     atom   21 type  1   force =     0.00025446    0.00011621   -0.00028786
     atom   22 type  1   force =     0.00026107    0.00012092    0.00029413
     atom   23 type  1   force =     0.00013096   -0.00028347    0.00015989
     atom   24 type  1   force =     0.00012732   -0.00028337   -0.00016094
     atom   25 type  1   force =     0.00056690    0.00056273    0.00004982
     atom   26 type  1   force =     0.00024210   -0.00023102   -0.00011578
     atom   27 type  1   force =     0.00023362   -0.00022259    0.00010807
     atom   28 type  1   force =     0.00055928    0.00055482   -0.00004175
     atom   29 type  1   force =     0.00001780   -0.00010127    0.00000436
     atom   30 type  1   force =     0.00012624    0.00016063   -0.00000974
     atom   31 type  1   force =     0.00012680    0.00016135    0.00000941
     atom   32 type  1   force =     0.00001841   -0.00010025   -0.00000457
     atom   33 type  1   force =    -0.00002717    0.00002539    0.00008503
     atom   34 type  1   force =     0.00029368    0.00022738    0.00006457
     atom   35 type  1   force =     0.00022591    0.00006483    0.00006181
     atom   36 type  1   force =    -0.00005418    0.00005674    0.00008255
     atom   37 type  1   force =     0.00479778    0.00479551    0.00396906
     atom   38 type  1   force =    -0.00004269    0.00002269    0.00011295
     atom   39 type  1   force =    -0.00002805    0.00005666    0.00010078
     atom   40 type  1   force =     0.00396371    0.00274034    0.00274285
     atom   41 type  1   force =    -0.00008223   -0.00007478   -0.00004770
     atom   42 type  1   force =     0.00392915   -0.00270305   -0.00270373
     atom   43 type  1   force =     0.00090381    0.00090851    0.00001789
     atom   44 type  1   force =    -0.00009680   -0.00010696   -0.00004047
     atom   45 type  1   force =     0.00018643   -0.00002682   -0.00002561
     atom   46 type  1   force =    -0.00009825   -0.00008745   -0.00003897
     atom   47 type  1   force =    -0.00010153   -0.00010675   -0.00003282
     atom   48 type  1   force =     0.00025482    0.00013225   -0.00002715
     atom   49 type  1   force =    -0.00009597   -0.00010721    0.00004230
     atom   50 type  1   force =     0.00096123    0.00085091    0.00007329
     atom   51 type  1   force =     0.00381179   -0.00248095    0.00248268
     atom   52 type  1   force =    -0.00008098   -0.00007352    0.00004709
     atom   53 type  1   force =     0.00025172    0.00013193    0.00002609
     atom   54 type  1   force =    -0.00009754   -0.00011119    0.00002927
     atom   55 type  1   force =    -0.00009664   -0.00008897    0.00003706
     atom   56 type  1   force =     0.00018762   -0.00002976    0.00002812
     atom   57 type  1   force =    -0.00005329    0.00005742   -0.00008106
     atom   58 type  1   force =     0.00022745    0.00006781   -0.00006513
     atom   59 type  1   force =     0.00029081    0.00022742   -0.00006653
     atom   60 type  1   force =    -0.00002805    0.00002465   -0.00008477
     atom   61 type  1   force =     0.00384974    0.00252063   -0.00252191
     atom   62 type  1   force =    -0.00002807    0.00005524   -0.00010091
     atom   63 type  1   force =    -0.00004166    0.00002241   -0.00011466
     atom   64 type  1   force =     0.00440366    0.00440287   -0.00343468

     Total force =     0.027251     Total SCF correction =     0.000038


     Computing stress (Cartesian axis) and pressure

          total   stress  (Ry/bohr**3)                   (kbar)     P=    0.12
   0.00000067   0.00000009   0.00000169          0.10      0.01      0.25
   0.00000009   0.00000082   0.00000407          0.01      0.12      0.60
   0.00000169   0.00000407   0.00000089          0.25      0.60      0.13


     init_run     :     40.29s CPU     41.09s WALL (       1 calls)
     electrons    :    877.81s CPU    898.23s WALL (       1 calls)
     forces       :     11.65s CPU     11.86s WALL (       1 calls)
     stress       :     56.58s CPU     56.83s WALL (       1 calls)

     Called by init_run:
     wfcinit      :     37.21s CPU     37.93s WALL (       1 calls)
     potinit      :      1.07s CPU      1.09s WALL (       1 calls)

     Called by electrons:
     c_bands      :    729.11s CPU    745.90s WALL (      14 calls)
     sum_band     :    131.99s CPU    134.60s WALL (      14 calls)
     v_of_rho     :      5.38s CPU      5.56s WALL (      14 calls)
     newd         :      2.90s CPU      3.74s WALL (      14 calls)
     PAW_pot      :      8.26s CPU      8.27s WALL (      14 calls)
     mix_rho      :      1.21s CPU      1.26s WALL (      14 calls)

     Called by c_bands:
     init_us_2    :      7.86s CPU      7.88s WALL (     124 calls)
     cegterg      :    714.32s CPU    731.04s WALL (      56 calls)

     Called by sum_band:
     sum_band:bec :      0.01s CPU      0.02s WALL (      56 calls)
     addusdens    :      3.52s CPU      4.35s WALL (      14 calls)

     Called by *egterg:
     h_psi        :    634.93s CPU    645.30s WALL (     203 calls)
     s_psi        :     36.66s CPU     36.65s WALL (     203 calls)
     g_psi        :      1.31s CPU      1.28s WALL (     143 calls)
     cdiaghg      :      4.65s CPU      4.65s WALL (     195 calls)

     Called by h_psi:
     h_psi:pot    :    630.86s CPU    641.19s WALL (     203 calls)
     h_psi:calbec :     36.64s CPU     36.63s WALL (     203 calls)
     vloc_psi     :    557.76s CPU    568.08s WALL (     203 calls)
     add_vuspsi   :     36.46s CPU     36.49s WALL (     203 calls)

     General routines
     calbec       :     53.77s CPU     53.77s WALL (     279 calls)
     fft          :      4.52s CPU      4.83s WALL (     209 calls)
     fftw         :    563.51s CPU    575.47s WALL (   48938 calls)

     Parallel routines
     fft_scatt_xy :     94.62s CPU     94.78s WALL (   49147 calls)
     fft_scatt_yz :    104.76s CPU    111.11s WALL (   49147 calls)

     PWSCF        : 16m26.43s CPU    16m48.14s WALL


   This run was terminated on:  16:23:26  24Oct2021            

=------------------------------------------------------------------------------=
   JOB DONE.
=------------------------------------------------------------------------------=
Note: The following floating-point exceptions are signalling: IEEE_UNDERFLOW_FLAG IEEE_DENORMAL
