
     Program PWSCF v.6.2 (svn rev. 13949:13950) starts on 25Oct2021 at 18: 3:11 

     This program is part of the open-source Quantum ESPRESSO suite
     for quantum simulation of materials; please cite
         "P. Giannozzi et al., J. Phys.:Condens. Matter 21 395502 (2009);
         "P. Giannozzi et al., J. Phys.:Condens. Matter 29 465901 (2017);
          URL http://www.quantum-espresso.org", 
     in publications or presentations arising from this work. More details at
     http://www.quantum-espresso.org/quote

     Parallel version (MPI), running on     4 processors

     MPI processes distributed on     1 nodes
     R & G space division:  proc/nbgrp/npool/nimage =       4
     Reading input from headeradd_supercell-00108.in

     Current dimensions of program PWSCF are:
     Max number of different atomic species (ntypx) = 10
     Max number of k-points (npk) =  40000
     Max angular momentum in pseudopotentials (lmaxx) =  3
     Message from routine iosys:
     minimal I/O required, wf_collect reset to FALSE
               file Si.pbe-n-kjpaw_psl.0.1.UPF: wavefunction(s)  3S renormalized

     Subspace diagonalization in iterative solution of the eigenvalue problem:
     a serial algorithm will be used


     Parallelization info
     --------------------
     sticks:   dense  smooth     PW     G-vecs:    dense   smooth      PW
     Min        2372    2372    612               174341   174341   22844
     Max        2374    2374    613               174344   174344   22847
     Sum        9493    9493   2449               697371   697371   91383



     bravais-lattice index     =            0
     lattice parameter (alat)  =      20.6591  a.u.
     unit-cell volume          =    8817.2783 (a.u.)^3
     number of atoms/cell      =           64
     number of atomic types    =            1
     number of electrons       =       256.00
     number of Kohn-Sham states=          128
     kinetic-energy cutoff     =      70.0000  Ry
     charge density cutoff     =     280.0000  Ry
     convergence threshold     =      1.0E-09
     mixing beta               =       0.7000
     number of iterations used =            8  plain     mixing
     Exchange-correlation      =  SLA  PW   PBX  PBC ( 1  4  3  4 0 0)

     celldm(1)=  20.659106  celldm(2)=   0.000000  celldm(3)=   0.000000
     celldm(4)=   0.000000  celldm(5)=   0.000000  celldm(6)=   0.000000

     crystal axes: (cart. coord. in units of alat)
               a(1) = (   1.000000   0.000000   0.000000 )  
               a(2) = (   0.000000   1.000000   0.000000 )  
               a(3) = (   0.000000   0.000000   1.000000 )  

     reciprocal axes: (cart. coord. in units 2 pi/alat)
               b(1) = (  1.000000  0.000000  0.000000 )  
               b(2) = (  0.000000  1.000000  0.000000 )  
               b(3) = (  0.000000  0.000000  1.000000 )  


     PseudoPot. # 1 for Si read from file:
     /home/uezono/pseudo/Si.pbe-n-kjpaw_psl.0.1.UPF
     MD5 check sum: 0810ef13ebffcf5dbabd57b297315270
     Pseudo is Projector augmented-wave + core cor, Zval =  4.0
     Generated using "atomic" code by A. Dal Corso  v.5.0.2 svn rev. 9415
     Shape of augmentation charge: PSQ
     Using radial grid of 1141 points,  4 beta functions with: 
                l(1) =   0
                l(2) =   0
                l(3) =   1
                l(4) =   1
     Q(r) pseudized with 0 coefficients 


     atomic species   valence    mass     pseudopotential
        Si             4.00    28.08550     Si( 1.00)

     No symmetry found



   Cartesian axes

     site n.     atom                  positions (alat units)
         1           Si  tau(   1) = (   0.4404043   0.4375000   0.4375000  )
         2           Si  tau(   2) = (   0.9375000   0.4375000   0.4375000  )
         3           Si  tau(   3) = (   0.4375000   0.9375000   0.4375000  )
         4           Si  tau(   4) = (   0.9375000   0.9375000   0.4375000  )
         5           Si  tau(   5) = (   0.4375000   0.4375000   0.9375000  )
         6           Si  tau(   6) = (   0.9375000   0.4375000   0.9375000  )
         7           Si  tau(   7) = (   0.4375000   0.9375000   0.9375000  )
         8           Si  tau(   8) = (   0.9375000   0.9375000   0.9375000  )
         9           Si  tau(   9) = (   0.4375000   0.1875000   0.1875000  )
        10           Si  tau(  10) = (   0.9375000   0.1875000   0.1875000  )
        11           Si  tau(  11) = (   0.4375000   0.6875000   0.1875000  )
        12           Si  tau(  12) = (   0.9375000   0.6875000   0.1875000  )
        13           Si  tau(  13) = (   0.4375000   0.1875000   0.6875000  )
        14           Si  tau(  14) = (   0.9375000   0.1875000   0.6875000  )
        15           Si  tau(  15) = (   0.4375000   0.6875000   0.6875000  )
        16           Si  tau(  16) = (   0.9375000   0.6875000   0.6875000  )
        17           Si  tau(  17) = (   0.1875000   0.4375000   0.1875000  )
        18           Si  tau(  18) = (   0.6875000   0.4375000   0.1875000  )
        19           Si  tau(  19) = (   0.1875000   0.9375000   0.1875000  )
        20           Si  tau(  20) = (   0.6875000   0.9375000   0.1875000  )
        21           Si  tau(  21) = (   0.1875000   0.4375000   0.6875000  )
        22           Si  tau(  22) = (   0.6875000   0.4375000   0.6875000  )
        23           Si  tau(  23) = (   0.1875000   0.9375000   0.6875000  )
        24           Si  tau(  24) = (   0.6875000   0.9375000   0.6875000  )
        25           Si  tau(  25) = (   0.1875000   0.1875000   0.4375000  )
        26           Si  tau(  26) = (   0.6875000   0.1875000   0.4375000  )
        27           Si  tau(  27) = (   0.1875000   0.6875000   0.4375000  )
        28           Si  tau(  28) = (   0.6875000   0.6875000   0.4375000  )
        29           Si  tau(  29) = (   0.1875000   0.1875000   0.9375000  )
        30           Si  tau(  30) = (   0.6875000   0.1875000   0.9375000  )
        31           Si  tau(  31) = (   0.1875000   0.6875000   0.9375000  )
        32           Si  tau(  32) = (   0.6875000   0.6875000   0.9375000  )
        33           Si  tau(  33) = (   0.0625000   0.0625000   0.0625000  )
        34           Si  tau(  34) = (   0.5625000   0.0625000   0.0625000  )
        35           Si  tau(  35) = (   0.0625000   0.5625000   0.0625000  )
        36           Si  tau(  36) = (   0.5625000   0.5625000   0.0625000  )
        37           Si  tau(  37) = (   0.0625000   0.0625000   0.5625000  )
        38           Si  tau(  38) = (   0.5625000   0.0625000   0.5625000  )
        39           Si  tau(  39) = (   0.0625000   0.5625000   0.5625000  )
        40           Si  tau(  40) = (   0.5625000   0.5625000   0.5625000  )
        41           Si  tau(  41) = (   0.0625000   0.3125000   0.3125000  )
        42           Si  tau(  42) = (   0.5625000   0.3125000   0.3125000  )
        43           Si  tau(  43) = (   0.0625000   0.8125000   0.3125000  )
        44           Si  tau(  44) = (   0.5625000   0.8125000   0.3125000  )
        45           Si  tau(  45) = (   0.0625000   0.3125000   0.8125000  )
        46           Si  tau(  46) = (   0.5625000   0.3125000   0.8125000  )
        47           Si  tau(  47) = (   0.0625000   0.8125000   0.8125000  )
        48           Si  tau(  48) = (   0.5625000   0.8125000   0.8125000  )
        49           Si  tau(  49) = (   0.3125000   0.0625000   0.3125000  )
        50           Si  tau(  50) = (   0.8125000   0.0625000   0.3125000  )
        51           Si  tau(  51) = (   0.3125000   0.5625000   0.3125000  )
        52           Si  tau(  52) = (   0.8125000   0.5625000   0.3125000  )
        53           Si  tau(  53) = (   0.3125000   0.0625000   0.8125000  )
        54           Si  tau(  54) = (   0.8125000   0.0654043   0.8125000  )
        55           Si  tau(  55) = (   0.3125000   0.5625000   0.8125000  )
        56           Si  tau(  56) = (   0.8125000   0.5625000   0.8125000  )
        57           Si  tau(  57) = (   0.3125000   0.3125000   0.0625000  )
        58           Si  tau(  58) = (   0.8125000   0.3125000   0.0625000  )
        59           Si  tau(  59) = (   0.3125000   0.8125000   0.0625000  )
        60           Si  tau(  60) = (   0.8125000   0.8125000   0.0625000  )
        61           Si  tau(  61) = (   0.3125000   0.3125000   0.5625000  )
        62           Si  tau(  62) = (   0.8125000   0.3125000   0.5625000  )
        63           Si  tau(  63) = (   0.3125000   0.8125000   0.5625000  )
        64           Si  tau(  64) = (   0.8125000   0.8125000   0.5625000  )

     number of k points=     4
                       cart. coord. in units 2pi/alat
        k(    1) = (   0.2500000   0.2500000   0.2500000), wk =   0.5000000
        k(    2) = (  -0.2500000  -0.2500000   0.2500000), wk =   0.5000000
        k(    3) = (  -0.2500000   0.2500000  -0.2500000), wk =   0.5000000
        k(    4) = (   0.2500000  -0.2500000  -0.2500000), wk =   0.5000000

     Dense  grid:   697371 G-vectors     FFT dimensions: ( 120, 120, 120)

     Estimated max dynamical RAM per process >       1.08 GB

     Estimated total dynamical RAM >       4.33 GB

     Initial potential from superposition of free atoms

     starting charge  255.96421, renormalised to  256.00000
     Starting wfc are  256 randomized atomic wfcs
     Checking if some PAW data can be deallocated... 

     total cpu time spent up to now is       42.2 secs

     Self-consistent Calculation

     iteration #  1     ecut=    70.00 Ry     beta= 0.70
     Davidson diagonalization with overlap
     ethr =  1.00E-02,  avg # of iterations =  2.0

     Threshold (ethr) on eigenvalues was too large:
     Diagonalizing with lowered threshold

     Davidson diagonalization with overlap
     ethr =  6.98E-04,  avg # of iterations =  1.0

     total cpu time spent up to now is      160.3 secs

     total energy              =   -2990.46246924 Ry
     Harris-Foulkes estimate   =   -2990.88044868 Ry
     estimated scf accuracy    <       1.76647851 Ry

     iteration #  2     ecut=    70.00 Ry     beta= 0.70
     Davidson diagonalization with overlap
     ethr =  6.90E-04,  avg # of iterations =  1.0

     total cpu time spent up to now is      210.5 secs

     total energy              =   -2990.52627776 Ry
     Harris-Foulkes estimate   =   -2990.53059041 Ry
     estimated scf accuracy    <       0.07827823 Ry

     iteration #  3     ecut=    70.00 Ry     beta= 0.70
     Davidson diagonalization with overlap
     ethr =  3.06E-05,  avg # of iterations =  2.5

     total cpu time spent up to now is      269.6 secs

     total energy              =   -2990.53497026 Ry
     Harris-Foulkes estimate   =   -2990.53564476 Ry
     estimated scf accuracy    <       0.00179502 Ry

     iteration #  4     ecut=    70.00 Ry     beta= 0.70
     Davidson diagonalization with overlap
     ethr =  7.01E-07,  avg # of iterations =  3.8

     total cpu time spent up to now is      354.8 secs

     total energy              =   -2990.53553484 Ry
     Harris-Foulkes estimate   =   -2990.53625728 Ry
     estimated scf accuracy    <       0.00204629 Ry

     iteration #  5     ecut=    70.00 Ry     beta= 0.70
     Davidson diagonalization with overlap
     ethr =  7.01E-07,  avg # of iterations =  3.0

     total cpu time spent up to now is      417.8 secs

     total energy              =   -2990.53588088 Ry
     Harris-Foulkes estimate   =   -2990.53595281 Ry
     estimated scf accuracy    <       0.00020708 Ry

     iteration #  6     ecut=    70.00 Ry     beta= 0.70
     Davidson diagonalization with overlap
     ethr =  8.09E-08,  avg # of iterations =  3.0

     total cpu time spent up to now is      484.1 secs

     total energy              =   -2990.53591354 Ry
     Harris-Foulkes estimate   =   -2990.53593643 Ry
     estimated scf accuracy    <       0.00006438 Ry

     iteration #  7     ecut=    70.00 Ry     beta= 0.70
     Davidson diagonalization with overlap
     ethr =  2.51E-08,  avg # of iterations =  2.0

     total cpu time spent up to now is      546.0 secs

     total energy              =   -2990.53592464 Ry
     Harris-Foulkes estimate   =   -2990.53592517 Ry
     estimated scf accuracy    <       0.00000100 Ry

     iteration #  8     ecut=    70.00 Ry     beta= 0.70
     Davidson diagonalization with overlap
     ethr =  3.89E-10,  avg # of iterations =  3.5

     total cpu time spent up to now is      637.6 secs

     total energy              =   -2990.53592554 Ry
     Harris-Foulkes estimate   =   -2990.53592579 Ry
     estimated scf accuracy    <       0.00000043 Ry

     iteration #  9     ecut=    70.00 Ry     beta= 0.70
     Davidson diagonalization with overlap
     ethr =  1.69E-10,  avg # of iterations =  3.0

     total cpu time spent up to now is      700.4 secs

     total energy              =   -2990.53592549 Ry
     Harris-Foulkes estimate   =   -2990.53592563 Ry
     estimated scf accuracy    <       0.00000019 Ry

     iteration # 10     ecut=    70.00 Ry     beta= 0.70
     Davidson diagonalization with overlap
     ethr =  7.37E-11,  avg # of iterations =  2.0

     total cpu time spent up to now is      761.5 secs

     total energy              =   -2990.53592545 Ry
     Harris-Foulkes estimate   =   -2990.53592552 Ry
     estimated scf accuracy    <       0.00000003 Ry

     iteration # 11     ecut=    70.00 Ry     beta= 0.70
     Davidson diagonalization with overlap
     ethr =  9.99E-12,  avg # of iterations =  3.0

     total cpu time spent up to now is      829.5 secs

     total energy              =   -2990.53592546 Ry
     Harris-Foulkes estimate   =   -2990.53592546 Ry
     estimated scf accuracy    <          4.5E-09 Ry

     iteration # 12     ecut=    70.00 Ry     beta= 0.70
     Davidson diagonalization with overlap
     ethr =  1.77E-12,  avg # of iterations =  3.0

     total cpu time spent up to now is      902.2 secs

     total energy              =   -2990.53592546 Ry
     Harris-Foulkes estimate   =   -2990.53592546 Ry
     estimated scf accuracy    <          1.4E-09 Ry

     iteration # 13     ecut=    70.00 Ry     beta= 0.70
     Davidson diagonalization with overlap
     ethr =  5.39E-13,  avg # of iterations =  3.0

     total cpu time spent up to now is      973.9 secs

     End of self-consistent calculation

          k = 0.2500 0.2500 0.2500 ( 87251 PWs)   bands (ev):

    -5.6250  -5.0989  -5.0970  -5.0931  -4.5992  -4.5974  -4.5936  -4.1631
    -4.0660  -4.0642  -4.0599  -3.6557  -3.6495  -3.6472  -3.6470  -3.6455
    -3.6375  -3.4593  -3.4548  -3.4503  -2.9614  -2.9602  -2.9541  -2.5944
    -2.5892  -2.5841  -2.4293  -2.4239  -2.4210  -2.4205  -2.4188  -2.4112
    -0.8880  -0.8819  -0.8783  -0.8780  -0.8758  -0.8677  -0.7860  -0.7804
    -0.7751  -0.6677  -0.6623  -0.6564  -0.5808  -0.5771  -0.5705   0.1263
     0.2014   0.2064   0.2100   0.2106   0.2139   0.2222   1.0807   1.0847
     1.0908   1.4142   1.4181   1.4227   2.0244   2.0270   2.0279   2.0293
     2.0320   2.0341   2.0856   2.0877   2.0915   2.6371   2.6402   2.6430
     2.7382   2.7392   2.7415   2.7436   2.7468   2.7493   2.7925   2.7963
     2.8008   3.1024   3.1050   3.1068   3.1071   3.1093   3.1147   3.3690
     3.3713   3.3747   3.3825   3.3863   3.3900   3.7318   3.7350   3.7366
     3.7525   3.7562   3.7612   3.8364   3.8388   3.8433   4.1074   4.1121
     4.1131   4.1142   4.1155   4.1227   4.1502   4.1529   4.1583   4.4131
     4.4676   4.4706   4.4746   4.7108   4.7138   4.7186   4.7750   4.7782
     4.7838   4.9319   4.9407   5.2386   5.2428   5.2491   5.7191   5.7289

          k =-0.2500-0.2500 0.2500 ( 87251 PWs)   bands (ev):

    -5.6250  -5.0989  -5.0970  -5.0932  -4.5992  -4.5974  -4.5936  -4.1631
    -4.0660  -4.0642  -4.0599  -3.6557  -3.6495  -3.6472  -3.6470  -3.6455
    -3.6375  -3.4593  -3.4548  -3.4503  -2.9614  -2.9602  -2.9541  -2.5944
    -2.5892  -2.5841  -2.4293  -2.4239  -2.4210  -2.4205  -2.4188  -2.4112
    -0.8880  -0.8819  -0.8783  -0.8780  -0.8758  -0.8677  -0.7860  -0.7804
    -0.7751  -0.6677  -0.6623  -0.6564  -0.5807  -0.5771  -0.5705   0.1263
     0.2014   0.2064   0.2100   0.2106   0.2139   0.2222   1.0807   1.0847
     1.0908   1.4142   1.4181   1.4227   2.0244   2.0270   2.0279   2.0293
     2.0320   2.0341   2.0856   2.0877   2.0915   2.6371   2.6402   2.6430
     2.7382   2.7392   2.7415   2.7436   2.7468   2.7493   2.7925   2.7963
     2.8008   3.1024   3.1050   3.1068   3.1071   3.1093   3.1147   3.3690
     3.3713   3.3747   3.3825   3.3863   3.3900   3.7318   3.7350   3.7366
     3.7525   3.7562   3.7612   3.8364   3.8388   3.8433   4.1074   4.1121
     4.1131   4.1142   4.1155   4.1227   4.1502   4.1529   4.1583   4.4131
     4.4676   4.4706   4.4746   4.7108   4.7138   4.7186   4.7750   4.7782
     4.7838   4.9319   4.9407   5.2386   5.2428   5.2491   5.7191   5.7289

          k =-0.2500 0.2500-0.2500 ( 87251 PWs)   bands (ev):

    -5.6251  -5.0997  -5.0973  -5.0917  -4.6002  -4.5977  -4.5925  -4.1643
    -4.0674  -4.0644  -4.0592  -3.6531  -3.6499  -3.6482  -3.6478  -3.6461
    -3.6342  -3.4576  -3.4552  -3.4495  -2.9654  -2.9598  -2.9560  -2.5925
    -2.5910  -2.5831  -2.4258  -2.4239  -2.4224  -2.4219  -2.4196  -2.4093
    -0.8851  -0.8809  -0.8806  -0.8790  -0.8762  -0.8709  -0.7856  -0.7829
    -0.7754  -0.6685  -0.6628  -0.6604  -0.5778  -0.5764  -0.5612   0.1300
     0.2009   0.2065   0.2080   0.2099   0.2122   0.2181   1.0827   1.0852
     1.0954   1.4151   1.4178   1.4219   2.0244   2.0265   2.0290   2.0295
     2.0312   2.0331   2.0840   2.0873   2.0904   2.6399   2.6407   2.6454
     2.7358   2.7369   2.7418   2.7433   2.7459   2.7468   2.7920   2.7929
     2.7982   3.1025   3.1058   3.1070   3.1081   3.1082   3.1148   3.3681
     3.3714   3.3720   3.3824   3.3848   3.3877   3.7339   3.7352   3.7408
     3.7560   3.7572   3.7656   3.8358   3.8391   3.8401   4.1120   4.1130
     4.1134   4.1168   4.1169   4.1291   4.1497   4.1530   4.1549   4.4171
     4.4658   4.4699   4.4705   4.7094   4.7139   4.7142   4.7789   4.7796
     4.7924   4.9324   4.9376   5.2367   5.2427   5.2430   5.7188   5.7244

          k = 0.2500-0.2500-0.2500 ( 87251 PWs)   bands (ev):

    -5.6250  -5.0996  -5.0968  -5.0930  -4.5995  -4.5971  -4.5934  -4.1622
    -4.0665  -4.0635  -4.0589  -3.6553  -3.6513  -3.6471  -3.6465  -3.6439
    -3.6413  -3.4601  -3.4543  -3.4521  -2.9606  -2.9578  -2.9517  -2.5955
    -2.5877  -2.5856  -2.4295  -2.4231  -2.4210  -2.4205  -2.4168  -2.4156
    -0.8879  -0.8798  -0.8780  -0.8777  -0.8729  -0.8703  -0.7858  -0.7777
    -0.7755  -0.6641  -0.6616  -0.6556  -0.5881  -0.5771  -0.5758   0.1226
     0.2032   0.2095   0.2104   0.2109   0.2180   0.2214   1.0762   1.0849
     1.0878   1.4148   1.4188   1.4215   2.0234   2.0264   2.0292   2.0298
     2.0314   2.0349   2.0866   2.0899   2.0922   2.6353   2.6388   2.6403
     2.7393   2.7414   2.7427   2.7443   2.7469   2.7514   2.7945   2.7999
     2.8024   3.1023   3.1045   3.1069   3.1076   3.1091   3.1140   3.3707
     3.3722   3.3755   3.3849   3.3876   3.3902   3.7303   3.7318   3.7356
     3.7491   3.7545   3.7565   3.8387   3.8396   3.8438   4.1037   4.1072
     4.1131   4.1141   4.1151   4.1158   4.1528   4.1538   4.1586   4.4091
     4.4708   4.4719   4.4770   4.7141   4.7149   4.7204   4.7675   4.7767
     4.7781   4.9349   4.9400   5.2432   5.2442   5.2515   5.7235   5.7292

     highest occupied level (ev):     5.7292

!    total energy              =   -2990.53592546 Ry
     Harris-Foulkes estimate   =   -2990.53592546 Ry
     estimated scf accuracy    <          5.9E-10 Ry

     total all-electron energy =    -37124.671479 Ry

     The total energy is the sum of the following terms:

     one-electron contribution =     178.60397726 Ry
     hartree contribution      =      35.70181936 Ry
     xc contribution           =    -391.44049906 Ry
     ewald contribution        =    -534.00621353 Ry
     one-center paw contrib.   =   -2279.39500949 Ry

     convergence has been achieved in  13 iterations

     Forces acting on atoms (cartesian axes, Ry/au):

     atom    1 type  1   force =    -0.01589692   -0.00002205   -0.00003171
     atom    2 type  1   force =    -0.00000715    0.00002786   -0.00002649
     atom    3 type  1   force =     0.00002668    0.00025178   -0.00002748
     atom    4 type  1   force =    -0.00005847   -0.00005876   -0.00003774
     atom    5 type  1   force =     0.00002818    0.00002907   -0.00002890
     atom    6 type  1   force =    -0.00004504   -0.00001260   -0.00003765
     atom    7 type  1   force =    -0.00051231   -0.00006015   -0.00005166
     atom    8 type  1   force =    -0.00245765    0.00381049   -0.00248198
     atom    9 type  1   force =    -0.00050102    0.00036955    0.00008546
     atom   10 type  1   force =     0.00004967   -0.00005179   -0.00002927
     atom   11 type  1   force =    -0.00049219    0.00008725   -0.00014169
     atom   12 type  1   force =     0.00002648    0.00003585   -0.00003498
     atom   13 type  1   force =    -0.00048507   -0.00017002    0.00005944
     atom   14 type  1   force =     0.00270445    0.00391873   -0.00269440
     atom   15 type  1   force =    -0.00050340   -0.00008784   -0.00013938
     atom   16 type  1   force =     0.00003741   -0.00002232   -0.00004721
     atom   17 type  1   force =     0.00026305   -0.00013165    0.00025765
     atom   18 type  1   force =     0.00026622   -0.00008516   -0.00020667
     atom   19 type  1   force =     0.00006969    0.00024270   -0.00004938
     atom   20 type  1   force =     0.00009374   -0.00006941    0.00011334
     atom   21 type  1   force =     0.00025798    0.00013788   -0.00019798
     atom   22 type  1   force =     0.00027481    0.00010150    0.00027131
     atom   23 type  1   force =     0.00008021   -0.00004989    0.00012897
     atom   24 type  1   force =     0.00252387    0.00381999    0.00240577
     atom   25 type  1   force =     0.00020352    0.00048247   -0.00008233
     atom   26 type  1   force =     0.00018754   -0.00029335   -0.00007505
     atom   27 type  1   force =     0.00020070   -0.00024898    0.00014094
     atom   28 type  1   force =     0.00021061    0.00025873    0.00013830
     atom   29 type  1   force =     0.00000370   -0.00013765    0.00004076
     atom   30 type  1   force =    -0.00266176    0.00400537    0.00269431
     atom   31 type  1   force =     0.00001847    0.00010302    0.00003621
     atom   32 type  1   force =     0.00000297   -0.00008962    0.00004787
     atom   33 type  1   force =     0.00008793   -0.00049292    0.00014109
     atom   34 type  1   force =     0.00036866   -0.00050107   -0.00008572
     atom   35 type  1   force =     0.00003598    0.00002707    0.00003410
     atom   36 type  1   force =    -0.00005197    0.00004996    0.00002887
     atom   37 type  1   force =    -0.00008759   -0.00050389    0.00014026
     atom   38 type  1   force =    -0.00017046   -0.00048524   -0.00005910
     atom   39 type  1   force =    -0.00002204    0.00003752    0.00004806
     atom   40 type  1   force =     0.00391853    0.00270476    0.00269503
     atom   41 type  1   force =    -0.00008883    0.00000369   -0.00004800
     atom   42 type  1   force =     0.00400430   -0.00266091   -0.00269471
     atom   43 type  1   force =     0.00010320    0.00001783   -0.00003668
     atom   44 type  1   force =    -0.00013775    0.00000270   -0.00004104
     atom   45 type  1   force =     0.00025906    0.00021158   -0.00013836
     atom   46 type  1   force =    -0.00029361    0.00018872    0.00007533
     atom   47 type  1   force =    -0.00024865    0.00019995   -0.00014060
     atom   48 type  1   force =     0.00048194    0.00020230    0.00008249
     atom   49 type  1   force =    -0.00005909   -0.00051211    0.00005127
     atom   50 type  1   force =     0.00002823    0.00002755    0.00002885
     atom   51 type  1   force =     0.00381161   -0.00245785    0.00248145
     atom   52 type  1   force =    -0.00001375   -0.00004446    0.00003726
     atom   53 type  1   force =     0.00025241    0.00002613    0.00002765
     atom   54 type  1   force =    -0.00002253   -0.01589724    0.00003148
     atom   55 type  1   force =    -0.00005792   -0.00005796    0.00003799
     atom   56 type  1   force =     0.00002704   -0.00000680    0.00002710
     atom   57 type  1   force =    -0.00006822    0.00009454   -0.00011324
     atom   58 type  1   force =    -0.00008631    0.00026742    0.00020582
     atom   59 type  1   force =     0.00024345    0.00006903    0.00004856
     atom   60 type  1   force =    -0.00013217    0.00026154   -0.00025809
     atom   61 type  1   force =     0.00382084    0.00252444   -0.00240534
     atom   62 type  1   force =     0.00010068    0.00027579   -0.00027063
     atom   63 type  1   force =    -0.00004907    0.00007947   -0.00012810
     atom   64 type  1   force =     0.00013712    0.00025744    0.00019854

     Total force =     0.027183     Total SCF correction =     0.000048


     Computing stress (Cartesian axis) and pressure

          total   stress  (Ry/bohr**3)                   (kbar)     P=    0.12
   0.00000074   0.00000000  -0.00000238          0.11      0.00     -0.35
   0.00000000   0.00000074   0.00000238          0.00      0.11      0.35
  -0.00000238   0.00000238   0.00000089         -0.35      0.35      0.13


     init_run     :     41.24s CPU     42.13s WALL (       1 calls)
     electrons    :    909.35s CPU    931.72s WALL (       1 calls)
     forces       :     11.80s CPU     11.96s WALL (       1 calls)
     stress       :     57.36s CPU     57.65s WALL (       1 calls)

     Called by init_run:
     wfcinit      :     38.13s CPU     38.92s WALL (       1 calls)
     potinit      :      1.09s CPU      1.11s WALL (       1 calls)

     Called by electrons:
     c_bands      :    755.56s CPU    773.53s WALL (      14 calls)
     sum_band     :    136.96s CPU    140.37s WALL (      14 calls)
     v_of_rho     :      5.52s CPU      5.67s WALL (      14 calls)
     newd         :      2.92s CPU      3.79s WALL (      14 calls)
     PAW_pot      :      8.19s CPU      8.19s WALL (      14 calls)
     mix_rho      :      1.26s CPU      1.29s WALL (      14 calls)

     Called by c_bands:
     init_us_2    :      7.94s CPU      7.97s WALL (     124 calls)
     cegterg      :    740.43s CPU    758.34s WALL (      56 calls)

     Called by sum_band:
     sum_band:bec :      0.01s CPU      0.02s WALL (      56 calls)
     addusdens    :      3.67s CPU      4.47s WALL (      14 calls)

     Called by *egterg:
     h_psi        :    658.49s CPU    669.99s WALL (     203 calls)
     s_psi        :     37.52s CPU     37.54s WALL (     203 calls)
     g_psi        :      1.28s CPU      1.29s WALL (     143 calls)
     cdiaghg      :      4.96s CPU      4.96s WALL (     195 calls)

     Called by h_psi:
     h_psi:pot    :    654.28s CPU    665.78s WALL (     203 calls)
     h_psi:calbec :     37.47s CPU     37.55s WALL (     203 calls)
     vloc_psi     :    579.51s CPU    590.90s WALL (     203 calls)
     add_vuspsi   :     37.30s CPU     37.33s WALL (     203 calls)

     General routines
     calbec       :     54.92s CPU     55.17s WALL (     279 calls)
     fft          :      4.74s CPU      5.05s WALL (     209 calls)
     fftw         :    586.49s CPU    599.56s WALL (   49174 calls)

     Parallel routines
     fft_scatt_xy :     99.36s CPU     99.23s WALL (   49383 calls)
     fft_scatt_yz :    109.68s CPU    116.42s WALL (   49383 calls)

     PWSCF        : 16m59.85s CPU    17m23.58s WALL


   This run was terminated on:  18:20:34  25Oct2021            

=------------------------------------------------------------------------------=
   JOB DONE.
=------------------------------------------------------------------------------=
Note: The following floating-point exceptions are signalling: IEEE_UNDERFLOW_FLAG IEEE_DENORMAL
