
     Program PWSCF v.6.2 (svn rev. 13949:13950) starts on 24Oct2021 at 21: 5:16 

     This program is part of the open-source Quantum ESPRESSO suite
     for quantum simulation of materials; please cite
         "P. Giannozzi et al., J. Phys.:Condens. Matter 21 395502 (2009);
         "P. Giannozzi et al., J. Phys.:Condens. Matter 29 465901 (2017);
          URL http://www.quantum-espresso.org", 
     in publications or presentations arising from this work. More details at
     http://www.quantum-espresso.org/quote

     Parallel version (MPI), running on     4 processors

     MPI processes distributed on     1 nodes
     R & G space division:  proc/nbgrp/npool/nimage =       4
     Reading input from headeradd_supercell-00028.in

     Current dimensions of program PWSCF are:
     Max number of different atomic species (ntypx) = 10
     Max number of k-points (npk) =  40000
     Max angular momentum in pseudopotentials (lmaxx) =  3
     Message from routine iosys:
     minimal I/O required, wf_collect reset to FALSE
               file Si.pbe-n-kjpaw_psl.0.1.UPF: wavefunction(s)  3S renormalized

     Subspace diagonalization in iterative solution of the eigenvalue problem:
     a serial algorithm will be used


     Parallelization info
     --------------------
     sticks:   dense  smooth     PW     G-vecs:    dense   smooth      PW
     Min        2372    2372    612               174341   174341   22844
     Max        2374    2374    613               174344   174344   22847
     Sum        9493    9493   2449               697371   697371   91383



     bravais-lattice index     =            0
     lattice parameter (alat)  =      20.6591  a.u.
     unit-cell volume          =    8817.2783 (a.u.)^3
     number of atoms/cell      =           64
     number of atomic types    =            1
     number of electrons       =       256.00
     number of Kohn-Sham states=          128
     kinetic-energy cutoff     =      70.0000  Ry
     charge density cutoff     =     280.0000  Ry
     convergence threshold     =      1.0E-09
     mixing beta               =       0.7000
     number of iterations used =            8  plain     mixing
     Exchange-correlation      =  SLA  PW   PBX  PBC ( 1  4  3  4 0 0)

     celldm(1)=  20.659106  celldm(2)=   0.000000  celldm(3)=   0.000000
     celldm(4)=   0.000000  celldm(5)=   0.000000  celldm(6)=   0.000000

     crystal axes: (cart. coord. in units of alat)
               a(1) = (   1.000000   0.000000   0.000000 )  
               a(2) = (   0.000000   1.000000   0.000000 )  
               a(3) = (   0.000000   0.000000   1.000000 )  

     reciprocal axes: (cart. coord. in units 2 pi/alat)
               b(1) = (  1.000000  0.000000  0.000000 )  
               b(2) = (  0.000000  1.000000  0.000000 )  
               b(3) = (  0.000000  0.000000  1.000000 )  


     PseudoPot. # 1 for Si read from file:
     /home/uezono/pseudo/Si.pbe-n-kjpaw_psl.0.1.UPF
     MD5 check sum: 0810ef13ebffcf5dbabd57b297315270
     Pseudo is Projector augmented-wave + core cor, Zval =  4.0
     Generated using "atomic" code by A. Dal Corso  v.5.0.2 svn rev. 9415
     Shape of augmentation charge: PSQ
     Using radial grid of 1141 points,  4 beta functions with: 
                l(1) =   0
                l(2) =   0
                l(3) =   1
                l(4) =   1
     Q(r) pseudized with 0 coefficients 


     atomic species   valence    mass     pseudopotential
        Si             4.00    28.08550     Si( 1.00)

     No symmetry found



   Cartesian axes

     site n.     atom                  positions (alat units)
         1           Si  tau(   1) = (   0.4404043   0.4375000   0.4375000  )
         2           Si  tau(   2) = (   0.9375000   0.4375000   0.4375000  )
         3           Si  tau(   3) = (   0.4375000   0.9375000   0.4375000  )
         4           Si  tau(   4) = (   0.9375000   0.9375000   0.4375000  )
         5           Si  tau(   5) = (   0.4375000   0.4375000   0.9375000  )
         6           Si  tau(   6) = (   0.9375000   0.4375000   0.9375000  )
         7           Si  tau(   7) = (   0.4375000   0.9375000   0.9375000  )
         8           Si  tau(   8) = (   0.9375000   0.9375000   0.9375000  )
         9           Si  tau(   9) = (   0.4375000   0.1875000   0.1875000  )
        10           Si  tau(  10) = (   0.9375000   0.1875000   0.1875000  )
        11           Si  tau(  11) = (   0.4375000   0.6875000   0.1875000  )
        12           Si  tau(  12) = (   0.9375000   0.6904043   0.1875000  )
        13           Si  tau(  13) = (   0.4375000   0.1875000   0.6875000  )
        14           Si  tau(  14) = (   0.9375000   0.1875000   0.6875000  )
        15           Si  tau(  15) = (   0.4375000   0.6875000   0.6875000  )
        16           Si  tau(  16) = (   0.9375000   0.6875000   0.6875000  )
        17           Si  tau(  17) = (   0.1875000   0.4375000   0.1875000  )
        18           Si  tau(  18) = (   0.6875000   0.4375000   0.1875000  )
        19           Si  tau(  19) = (   0.1875000   0.9375000   0.1875000  )
        20           Si  tau(  20) = (   0.6875000   0.9375000   0.1875000  )
        21           Si  tau(  21) = (   0.1875000   0.4375000   0.6875000  )
        22           Si  tau(  22) = (   0.6875000   0.4375000   0.6875000  )
        23           Si  tau(  23) = (   0.1875000   0.9375000   0.6875000  )
        24           Si  tau(  24) = (   0.6875000   0.9375000   0.6875000  )
        25           Si  tau(  25) = (   0.1875000   0.1875000   0.4375000  )
        26           Si  tau(  26) = (   0.6875000   0.1875000   0.4375000  )
        27           Si  tau(  27) = (   0.1875000   0.6875000   0.4375000  )
        28           Si  tau(  28) = (   0.6875000   0.6875000   0.4375000  )
        29           Si  tau(  29) = (   0.1875000   0.1875000   0.9375000  )
        30           Si  tau(  30) = (   0.6875000   0.1875000   0.9375000  )
        31           Si  tau(  31) = (   0.1875000   0.6875000   0.9375000  )
        32           Si  tau(  32) = (   0.6875000   0.6875000   0.9375000  )
        33           Si  tau(  33) = (   0.0625000   0.0625000   0.0625000  )
        34           Si  tau(  34) = (   0.5625000   0.0625000   0.0625000  )
        35           Si  tau(  35) = (   0.0625000   0.5625000   0.0625000  )
        36           Si  tau(  36) = (   0.5625000   0.5625000   0.0625000  )
        37           Si  tau(  37) = (   0.0625000   0.0625000   0.5625000  )
        38           Si  tau(  38) = (   0.5625000   0.0625000   0.5625000  )
        39           Si  tau(  39) = (   0.0625000   0.5625000   0.5625000  )
        40           Si  tau(  40) = (   0.5625000   0.5625000   0.5625000  )
        41           Si  tau(  41) = (   0.0625000   0.3125000   0.3125000  )
        42           Si  tau(  42) = (   0.5625000   0.3125000   0.3125000  )
        43           Si  tau(  43) = (   0.0625000   0.8125000   0.3125000  )
        44           Si  tau(  44) = (   0.5625000   0.8125000   0.3125000  )
        45           Si  tau(  45) = (   0.0625000   0.3125000   0.8125000  )
        46           Si  tau(  46) = (   0.5625000   0.3125000   0.8125000  )
        47           Si  tau(  47) = (   0.0625000   0.8125000   0.8125000  )
        48           Si  tau(  48) = (   0.5625000   0.8125000   0.8125000  )
        49           Si  tau(  49) = (   0.3125000   0.0625000   0.3125000  )
        50           Si  tau(  50) = (   0.8125000   0.0625000   0.3125000  )
        51           Si  tau(  51) = (   0.3125000   0.5625000   0.3125000  )
        52           Si  tau(  52) = (   0.8125000   0.5625000   0.3125000  )
        53           Si  tau(  53) = (   0.3125000   0.0625000   0.8125000  )
        54           Si  tau(  54) = (   0.8125000   0.0625000   0.8125000  )
        55           Si  tau(  55) = (   0.3125000   0.5625000   0.8125000  )
        56           Si  tau(  56) = (   0.8125000   0.5625000   0.8125000  )
        57           Si  tau(  57) = (   0.3125000   0.3125000   0.0625000  )
        58           Si  tau(  58) = (   0.8125000   0.3125000   0.0625000  )
        59           Si  tau(  59) = (   0.3125000   0.8125000   0.0625000  )
        60           Si  tau(  60) = (   0.8125000   0.8125000   0.0625000  )
        61           Si  tau(  61) = (   0.3125000   0.3125000   0.5625000  )
        62           Si  tau(  62) = (   0.8125000   0.3125000   0.5625000  )
        63           Si  tau(  63) = (   0.3125000   0.8125000   0.5625000  )
        64           Si  tau(  64) = (   0.8125000   0.8125000   0.5625000  )

     number of k points=     4
                       cart. coord. in units 2pi/alat
        k(    1) = (   0.2500000   0.2500000   0.2500000), wk =   0.5000000
        k(    2) = (  -0.2500000  -0.2500000   0.2500000), wk =   0.5000000
        k(    3) = (  -0.2500000   0.2500000  -0.2500000), wk =   0.5000000
        k(    4) = (   0.2500000  -0.2500000  -0.2500000), wk =   0.5000000

     Dense  grid:   697371 G-vectors     FFT dimensions: ( 120, 120, 120)

     Estimated max dynamical RAM per process >       1.08 GB

     Estimated total dynamical RAM >       4.33 GB

     Initial potential from superposition of free atoms

     starting charge  255.96421, renormalised to  256.00000
     Starting wfc are  256 randomized atomic wfcs
     Checking if some PAW data can be deallocated... 

     total cpu time spent up to now is       41.1 secs

     Self-consistent Calculation

     iteration #  1     ecut=    70.00 Ry     beta= 0.70
     Davidson diagonalization with overlap
     ethr =  1.00E-02,  avg # of iterations =  2.0

     Threshold (ethr) on eigenvalues was too large:
     Diagonalizing with lowered threshold

     Davidson diagonalization with overlap
     ethr =  6.98E-04,  avg # of iterations =  1.0

     total cpu time spent up to now is      155.8 secs

     total energy              =   -2990.46247904 Ry
     Harris-Foulkes estimate   =   -2990.88045347 Ry
     estimated scf accuracy    <       1.76652816 Ry

     iteration #  2     ecut=    70.00 Ry     beta= 0.70
     Davidson diagonalization with overlap
     ethr =  6.90E-04,  avg # of iterations =  1.0

     total cpu time spent up to now is      204.6 secs

     total energy              =   -2990.52628270 Ry
     Harris-Foulkes estimate   =   -2990.53059354 Ry
     estimated scf accuracy    <       0.07826513 Ry

     iteration #  3     ecut=    70.00 Ry     beta= 0.70
     Davidson diagonalization with overlap
     ethr =  3.06E-05,  avg # of iterations =  2.8

     total cpu time spent up to now is      262.1 secs

     total energy              =   -2990.53497731 Ry
     Harris-Foulkes estimate   =   -2990.53564609 Ry
     estimated scf accuracy    <       0.00178985 Ry

     iteration #  4     ecut=    70.00 Ry     beta= 0.70
     Davidson diagonalization with overlap
     ethr =  6.99E-07,  avg # of iterations =  3.8

     total cpu time spent up to now is      344.7 secs

     total energy              =   -2990.53555728 Ry
     Harris-Foulkes estimate   =   -2990.53624098 Ry
     estimated scf accuracy    <       0.00192458 Ry

     iteration #  5     ecut=    70.00 Ry     beta= 0.70
     Davidson diagonalization with overlap
     ethr =  6.99E-07,  avg # of iterations =  3.0

     total cpu time spent up to now is      405.7 secs

     total energy              =   -2990.53588337 Ry
     Harris-Foulkes estimate   =   -2990.53595505 Ry
     estimated scf accuracy    <       0.00020607 Ry

     iteration #  6     ecut=    70.00 Ry     beta= 0.70
     Davidson diagonalization with overlap
     ethr =  8.05E-08,  avg # of iterations =  3.0

     total cpu time spent up to now is      470.4 secs

     total energy              =   -2990.53591653 Ry
     Harris-Foulkes estimate   =   -2990.53593837 Ry
     estimated scf accuracy    <       0.00006091 Ry

     iteration #  7     ecut=    70.00 Ry     beta= 0.70
     Davidson diagonalization with overlap
     ethr =  2.38E-08,  avg # of iterations =  2.0

     total cpu time spent up to now is      530.7 secs

     total energy              =   -2990.53592707 Ry
     Harris-Foulkes estimate   =   -2990.53592765 Ry
     estimated scf accuracy    <       0.00000113 Ry

     iteration #  8     ecut=    70.00 Ry     beta= 0.70
     Davidson diagonalization with overlap
     ethr =  4.42E-10,  avg # of iterations =  3.0

     total cpu time spent up to now is      618.3 secs

     total energy              =   -2990.53592796 Ry
     Harris-Foulkes estimate   =   -2990.53592821 Ry
     estimated scf accuracy    <       0.00000041 Ry

     iteration #  9     ecut=    70.00 Ry     beta= 0.70
     Davidson diagonalization with overlap
     ethr =  1.59E-10,  avg # of iterations =  3.0

     total cpu time spent up to now is      679.6 secs

     total energy              =   -2990.53592790 Ry
     Harris-Foulkes estimate   =   -2990.53592805 Ry
     estimated scf accuracy    <       0.00000019 Ry

     iteration # 10     ecut=    70.00 Ry     beta= 0.70
     Davidson diagonalization with overlap
     ethr =  7.59E-11,  avg # of iterations =  2.2

     total cpu time spent up to now is      739.3 secs

     total energy              =   -2990.53592787 Ry
     Harris-Foulkes estimate   =   -2990.53592793 Ry
     estimated scf accuracy    <       0.00000002 Ry

     iteration # 11     ecut=    70.00 Ry     beta= 0.70
     Davidson diagonalization with overlap
     ethr =  9.02E-12,  avg # of iterations =  3.0

     total cpu time spent up to now is      804.9 secs

     total energy              =   -2990.53592788 Ry
     Harris-Foulkes estimate   =   -2990.53592788 Ry
     estimated scf accuracy    <          3.5E-09 Ry

     iteration # 12     ecut=    70.00 Ry     beta= 0.70
     Davidson diagonalization with overlap
     ethr =  1.38E-12,  avg # of iterations =  3.0

     total cpu time spent up to now is      878.5 secs

     total energy              =   -2990.53592788 Ry
     Harris-Foulkes estimate   =   -2990.53592788 Ry
     estimated scf accuracy    <          1.7E-09 Ry

     iteration # 13     ecut=    70.00 Ry     beta= 0.70
     Davidson diagonalization with overlap
     ethr =  6.56E-13,  avg # of iterations =  3.0

     total cpu time spent up to now is      942.7 secs

     End of self-consistent calculation

          k = 0.2500 0.2500 0.2500 ( 87251 PWs)   bands (ev):

    -5.6250  -5.0995  -5.0966  -5.0933  -4.5994  -4.5969  -4.5937  -4.1621
    -4.0659  -4.0634  -4.0598  -3.6553  -3.6522  -3.6469  -3.6449  -3.6440
    -3.6419  -3.4601  -3.4542  -3.4520  -2.9594  -2.9572  -2.9536  -2.5954
    -2.5877  -2.5858  -2.4299  -2.4241  -2.4211  -2.4187  -2.4171  -2.4156
    -0.8881  -0.8809  -0.8780  -0.8760  -0.8730  -0.8709  -0.7857  -0.7776
    -0.7755  -0.6640  -0.6615  -0.6556  -0.5858  -0.5797  -0.5755   0.1225
     0.2029   0.2085   0.2115   0.2134   0.2170   0.2203   1.0782   1.0829
     1.0877   1.4166   1.4170   1.4214   2.0249   2.0271   2.0286   2.0297
     2.0307   2.0345   2.0869   2.0900   2.0915   2.6353   2.6389   2.6402
     2.7401   2.7411   2.7424   2.7453   2.7468   2.7504   2.7944   2.7998
     2.8024   3.1022   3.1043   3.1079   3.1089   3.1096   3.1115   3.3710
     3.3733   3.3742   3.3858   3.3861   3.3907   3.7294   3.7326   3.7356
     3.7489   3.7549   3.7566   3.8380   3.8406   3.8434   4.1026   4.1080
     4.1120   4.1147   4.1155   4.1159   4.1522   4.1549   4.1582   4.4091
     4.4709   4.4740   4.4749   4.7133   4.7162   4.7198   4.7703   4.7738
     4.7782   4.9349   4.9400   5.2423   5.2457   5.2510   5.7235   5.7292

          k =-0.2500-0.2500 0.2500 ( 87251 PWs)   bands (ev):

    -5.6251  -5.0993  -5.0960  -5.0933  -4.5999  -4.5966  -4.5938  -4.1641
    -4.0671  -4.0634  -4.0606  -3.6531  -3.6499  -3.6484  -3.6474  -3.6431
    -3.6376  -3.4577  -3.4554  -3.4492  -2.9654  -2.9595  -2.9564  -2.5926
    -2.5909  -2.5834  -2.4258  -2.4243  -2.4227  -2.4214  -2.4161  -2.4125
    -0.8850  -0.8820  -0.8805  -0.8785  -0.8755  -0.8713  -0.7857  -0.7831
    -0.7751  -0.6684  -0.6629  -0.6605  -0.5776  -0.5742  -0.5635   0.1300
     0.2014   0.2056   0.2078   0.2105   0.2122   0.2181   1.0828   1.0856
     1.0949   1.4151   1.4178   1.4219   2.0251   2.0264   2.0287   2.0298
     2.0308   2.0332   2.0843   2.0874   2.0898   2.6399   2.6412   2.6450
     2.7362   2.7381   2.7411   2.7428   2.7447   2.7477   2.7913   2.7945
     2.7973   3.1023   3.1066   3.1071   3.1080   3.1094   3.1129   3.3687
     3.3698   3.3725   3.3825   3.3849   3.3880   3.7338   3.7366   3.7387
     3.7563   3.7590   3.7644   3.8356   3.8388   3.8405   4.1122   4.1137
     4.1141   4.1159   4.1199   4.1258   4.1493   4.1527   4.1553   4.4170
     4.4668   4.4679   4.4714   4.7094   4.7133   4.7148   4.7790   4.7808
     4.7913   4.9324   4.9375   5.2368   5.2416   5.2440   5.7188   5.7244

          k =-0.2500 0.2500-0.2500 ( 87251 PWs)   bands (ev):

    -5.6250  -5.0989  -5.0970  -5.0931  -4.5994  -4.5973  -4.5935  -4.1632
    -4.0663  -4.0641  -4.0597  -3.6528  -3.6492  -3.6483  -3.6473  -3.6443
    -3.6404  -3.4589  -3.4548  -3.4505  -2.9627  -2.9595  -2.9535  -2.5930
    -2.5892  -2.5857  -2.4279  -2.4232  -2.4216  -2.4210  -2.4180  -2.4130
    -0.8876  -0.8813  -0.8788  -0.8783  -0.8747  -0.8692  -0.7841  -0.7804
    -0.7767  -0.6673  -0.6623  -0.6568  -0.5801  -0.5773  -0.5708   0.1263
     0.2027   0.2068   0.2092   0.2104   0.2153   0.2201   1.0805   1.0847
     1.0909   1.4140   1.4181   1.4228   2.0239   2.0277   2.0283   2.0295
     2.0315   2.0338   2.0856   2.0878   2.0915   2.6377   2.6402   2.6423
     2.7376   2.7392   2.7417   2.7444   2.7470   2.7486   2.7927   2.7963
     2.8006   3.1031   3.1045   3.1068   3.1071   3.1100   3.1138   3.3691
     3.3715   3.3739   3.3821   3.3869   3.3905   3.7317   3.7350   3.7365
     3.7529   3.7563   3.7606   3.8362   3.8389   3.8435   4.1073   4.1119
     4.1134   4.1144   4.1161   4.1224   4.1500   4.1530   4.1582   4.4131
     4.4675   4.4706   4.4746   4.7106   4.7138   4.7187   4.7747   4.7783
     4.7841   4.9319   4.9405   5.2384   5.2429   5.2493   5.7191   5.7289

          k = 0.2500-0.2500-0.2500 ( 87251 PWs)   bands (ev):

    -5.6250  -5.0997  -5.0956  -5.0937  -4.5999  -4.5960  -4.5944  -4.1631
    -4.0668  -4.0624  -4.0609  -3.6549  -3.6500  -3.6473  -3.6469  -3.6449
    -3.6384  -3.4590  -3.4548  -3.4504  -2.9616  -2.9578  -2.9563  -2.5930
    -2.5892  -2.5857  -2.4289  -2.4231  -2.4212  -2.4208  -2.4188  -2.4118
    -0.8868  -0.8812  -0.8791  -0.8779  -0.8754  -0.8694  -0.7841  -0.7804
    -0.7768  -0.6673  -0.6623  -0.6569  -0.5833  -0.5767  -0.5683   0.1263
     0.2034   0.2069   0.2097   0.2112   0.2144   0.2190   1.0793   1.0852
     1.0915   1.4140   1.4184   1.4225   2.0237   2.0272   2.0281   2.0302
     2.0317   2.0339   2.0858   2.0877   2.0912   2.6379   2.6399   2.6425
     2.7374   2.7400   2.7419   2.7447   2.7458   2.7486   2.7921   2.7972
     2.8004   3.1014   3.1060   3.1075   3.1079   3.1095   3.1132   3.3683
     3.3724   3.3737   3.3825   3.3868   3.3900   3.7314   3.7346   3.7376
     3.7525   3.7571   3.7601   3.8372   3.8390   3.8423   4.1058   4.1121
     4.1141   4.1148   4.1160   4.1224   4.1510   4.1530   4.1572   4.4129
     4.4674   4.4716   4.4741   4.7118   4.7139   4.7177   4.7730   4.7785
     4.7853   4.9318   4.9406   5.2398   5.2429   5.2480   5.7191   5.7289

     highest occupied level (ev):     5.7292

!    total energy              =   -2990.53592788 Ry
     Harris-Foulkes estimate   =   -2990.53592788 Ry
     estimated scf accuracy    <          7.4E-10 Ry

     total all-electron energy =    -37124.671481 Ry

     The total energy is the sum of the following terms:

     one-electron contribution =     178.60401136 Ry
     hartree contribution      =      35.70180282 Ry
     xc contribution           =    -391.44049865 Ry
     ewald contribution        =    -534.00623372 Ry
     one-center paw contrib.   =   -2279.39500969 Ry

     convergence has been achieved in  13 iterations

     Forces acting on atoms (cartesian axes, Ry/au):

     atom    1 type  1   force =    -0.01585575    0.00004210    0.00007694
     atom    2 type  1   force =     0.00013087    0.00023055   -0.00022707
     atom    3 type  1   force =     0.00006463    0.00004300   -0.00007622
     atom    4 type  1   force =     0.00010616    0.00023867    0.00023237
     atom    5 type  1   force =     0.00004551    0.00004196   -0.00007713
     atom    6 type  1   force =    -0.00011767    0.00023083    0.00022677
     atom    7 type  1   force =    -0.00048382    0.00004220    0.00007594
     atom    8 type  1   force =    -0.00009050    0.00023798   -0.00023291
     atom    9 type  1   force =    -0.00052779    0.00010747    0.00011471
     atom   10 type  1   force =    -0.00000163    0.00003174    0.00000955
     atom   11 type  1   force =    -0.00052291    0.00016367   -0.00010952
     atom   12 type  1   force =    -0.00000056   -0.01585730   -0.00001035
     atom   13 type  1   force =    -0.00052292   -0.00008488    0.00010915
     atom   14 type  1   force =    -0.00000038   -0.00001591    0.00000989
     atom   15 type  1   force =    -0.00052777   -0.00058889   -0.00011360
     atom   16 type  1   force =    -0.00000162    0.00004413   -0.00000882
     atom   17 type  1   force =     0.00000429    0.00012087    0.00033744
     atom   18 type  1   force =     0.00046523    0.00011702   -0.00034206
     atom   19 type  1   force =     0.00027500    0.00022861    0.00003683
     atom   20 type  1   force =    -0.00019051    0.00022860   -0.00003750
     atom   21 type  1   force =     0.00030793    0.00015138   -0.00021778
     atom   22 type  1   force =     0.00016067    0.00015544    0.00022290
     atom   23 type  1   force =    -0.00003363    0.00005246    0.00008678
     atom   24 type  1   force =     0.00011839    0.00005228   -0.00008556
     atom   25 type  1   force =     0.00022218    0.00022716   -0.00011891
     atom   26 type  1   force =     0.00022781   -0.00023194   -0.00010420
     atom   27 type  1   force =     0.00011757   -0.00075605   -0.00000420
     atom   28 type  1   force =     0.00012764   -0.00029188    0.00022366
     atom   29 type  1   force =     0.00005185   -0.00007622   -0.00001942
     atom   30 type  1   force =     0.00005197    0.00007599   -0.00000047
     atom   31 type  1   force =     0.00015173   -0.00044692   -0.00010016
     atom   32 type  1   force =     0.00015658   -0.00060532    0.00012353
     atom   33 type  1   force =    -0.00006010    0.00001874    0.00006908
     atom   34 type  1   force =     0.00022952    0.00005607    0.00005697
     atom   35 type  1   force =    -0.00245666    0.00383718    0.00250617
     atom   36 type  1   force =    -0.00009771   -0.00000939    0.00009035
     atom   37 type  1   force =    -0.00000335    0.00005367    0.00005327
     atom   38 type  1   force =    -0.00009123    0.00001791    0.00008103
     atom   39 type  1   force =    -0.00006504   -0.00002184    0.00007599
     atom   40 type  1   force =     0.00390179    0.00295533    0.00273219
     atom   41 type  1   force =     0.00002483   -0.00005127    0.00000022
     atom   42 type  1   force =     0.00395321   -0.00267854   -0.00267726
     atom   43 type  1   force =     0.00273030    0.00390440    0.00267781
     atom   44 type  1   force =    -0.00002167   -0.00009959   -0.00000017
     atom   45 type  1   force =     0.00005183   -0.00000052   -0.00000029
     atom   46 type  1   force =    -0.00002899   -0.00007170   -0.00000822
     atom   47 type  1   force =     0.00002794   -0.00009204    0.00000785
     atom   48 type  1   force =     0.00028358    0.00022799   -0.00000033
     atom   49 type  1   force =    -0.00003171   -0.00000856    0.00002273
     atom   50 type  1   force =     0.00006511   -0.00003855   -0.00000881
     atom   51 type  1   force =     0.00384901   -0.00254184    0.00243015
     atom   52 type  1   force =     0.00246788    0.00377151   -0.00244435
     atom   53 type  1   force =     0.00028365   -0.00004910   -0.00000356
     atom   54 type  1   force =     0.00000638   -0.00000239    0.00000417
     atom   55 type  1   force =    -0.00003064    0.00020019    0.00000977
     atom   56 type  1   force =     0.00007919   -0.00008868   -0.00001077
     atom   57 type  1   force =    -0.00008315    0.00007756   -0.00006385
     atom   58 type  1   force =    -0.00001084    0.00001622   -0.00006491
     atom   59 type  1   force =     0.00021415   -0.00003307   -0.00007797
     atom   60 type  1   force =    -0.00272675    0.00395917   -0.00273534
     atom   61 type  1   force =     0.00378058    0.00245973   -0.00251344
     atom   62 type  1   force =    -0.00004034    0.00006396   -0.00006240
     atom   63 type  1   force =    -0.00008601    0.00029294   -0.00007934
     atom   64 type  1   force =    -0.00002330   -0.00003428   -0.00006732

     Total force =     0.027156     Total SCF correction =     0.000055


     Computing stress (Cartesian axis) and pressure

          total   stress  (Ry/bohr**3)                   (kbar)     P=    0.12
   0.00000074   0.00000000   0.00000238          0.11      0.00      0.35
   0.00000000   0.00000074   0.00000238          0.00      0.11      0.35
   0.00000238   0.00000238   0.00000089          0.35      0.35      0.13


     init_run     :     40.14s CPU     41.00s WALL (       1 calls)
     electrons    :    881.16s CPU    901.62s WALL (       1 calls)
     forces       :     11.75s CPU     11.94s WALL (       1 calls)
     stress       :     56.60s CPU     56.86s WALL (       1 calls)

     Called by init_run:
     wfcinit      :     37.08s CPU     37.83s WALL (       1 calls)
     potinit      :      1.07s CPU      1.09s WALL (       1 calls)

     Called by electrons:
     c_bands      :    732.07s CPU    748.96s WALL (      14 calls)
     sum_band     :    132.53s CPU    135.09s WALL (      14 calls)
     v_of_rho     :      5.38s CPU      5.57s WALL (      14 calls)
     newd         :      2.84s CPU      3.74s WALL (      14 calls)
     PAW_pot      :      8.11s CPU      8.11s WALL (      14 calls)
     mix_rho      :      1.24s CPU      1.26s WALL (      14 calls)

     Called by c_bands:
     init_us_2    :      7.76s CPU      7.80s WALL (     124 calls)
     cegterg      :    717.28s CPU    734.10s WALL (      56 calls)

     Called by sum_band:
     sum_band:bec :      0.03s CPU      0.02s WALL (      56 calls)
     addusdens    :      3.56s CPU      4.35s WALL (      14 calls)

     Called by *egterg:
     h_psi        :    637.32s CPU    647.87s WALL (     203 calls)
     s_psi        :     36.76s CPU     36.76s WALL (     203 calls)
     g_psi        :      1.28s CPU      1.29s WALL (     143 calls)
     cdiaghg      :      4.70s CPU      4.69s WALL (     195 calls)

     Called by h_psi:
     h_psi:pot    :    633.24s CPU    643.74s WALL (     203 calls)
     h_psi:calbec :     36.55s CPU     36.57s WALL (     203 calls)
     vloc_psi     :    560.06s CPU    570.53s WALL (     203 calls)
     add_vuspsi   :     36.62s CPU     36.64s WALL (     203 calls)

     General routines
     calbec       :     53.82s CPU     53.85s WALL (     279 calls)
     fft          :      4.62s CPU      4.90s WALL (     209 calls)
     fftw         :    566.31s CPU    578.11s WALL (   49050 calls)

     Parallel routines
     fft_scatt_xy :     95.40s CPU     95.70s WALL (   49259 calls)
     fft_scatt_yz :    104.51s CPU    110.61s WALL (   49259 calls)

     PWSCF        : 16m29.74s CPU    16m51.54s WALL


   This run was terminated on:  21:22: 8  24Oct2021            

=------------------------------------------------------------------------------=
   JOB DONE.
=------------------------------------------------------------------------------=
Note: The following floating-point exceptions are signalling: IEEE_UNDERFLOW_FLAG IEEE_DENORMAL
