
     Program PWSCF v.6.2 (svn rev. 13949:13950) starts on 25Oct2021 at  0:24:18 

     This program is part of the open-source Quantum ESPRESSO suite
     for quantum simulation of materials; please cite
         "P. Giannozzi et al., J. Phys.:Condens. Matter 21 395502 (2009);
         "P. Giannozzi et al., J. Phys.:Condens. Matter 29 465901 (2017);
          URL http://www.quantum-espresso.org", 
     in publications or presentations arising from this work. More details at
     http://www.quantum-espresso.org/quote

     Parallel version (MPI), running on     4 processors

     MPI processes distributed on     1 nodes
     R & G space division:  proc/nbgrp/npool/nimage =       4
     Reading input from headeradd_supercell-00040.in

     Current dimensions of program PWSCF are:
     Max number of different atomic species (ntypx) = 10
     Max number of k-points (npk) =  40000
     Max angular momentum in pseudopotentials (lmaxx) =  3
     Message from routine iosys:
     minimal I/O required, wf_collect reset to FALSE
               file Si.pbe-n-kjpaw_psl.0.1.UPF: wavefunction(s)  3S renormalized

     Subspace diagonalization in iterative solution of the eigenvalue problem:
     a serial algorithm will be used


     Parallelization info
     --------------------
     sticks:   dense  smooth     PW     G-vecs:    dense   smooth      PW
     Min        2372    2372    612               174341   174341   22844
     Max        2374    2374    613               174344   174344   22847
     Sum        9493    9493   2449               697371   697371   91383



     bravais-lattice index     =            0
     lattice parameter (alat)  =      20.6591  a.u.
     unit-cell volume          =    8817.2783 (a.u.)^3
     number of atoms/cell      =           64
     number of atomic types    =            1
     number of electrons       =       256.00
     number of Kohn-Sham states=          128
     kinetic-energy cutoff     =      70.0000  Ry
     charge density cutoff     =     280.0000  Ry
     convergence threshold     =      1.0E-09
     mixing beta               =       0.7000
     number of iterations used =            8  plain     mixing
     Exchange-correlation      =  SLA  PW   PBX  PBC ( 1  4  3  4 0 0)

     celldm(1)=  20.659106  celldm(2)=   0.000000  celldm(3)=   0.000000
     celldm(4)=   0.000000  celldm(5)=   0.000000  celldm(6)=   0.000000

     crystal axes: (cart. coord. in units of alat)
               a(1) = (   1.000000   0.000000   0.000000 )  
               a(2) = (   0.000000   1.000000   0.000000 )  
               a(3) = (   0.000000   0.000000   1.000000 )  

     reciprocal axes: (cart. coord. in units 2 pi/alat)
               b(1) = (  1.000000  0.000000  0.000000 )  
               b(2) = (  0.000000  1.000000  0.000000 )  
               b(3) = (  0.000000  0.000000  1.000000 )  


     PseudoPot. # 1 for Si read from file:
     /home/uezono/pseudo/Si.pbe-n-kjpaw_psl.0.1.UPF
     MD5 check sum: 0810ef13ebffcf5dbabd57b297315270
     Pseudo is Projector augmented-wave + core cor, Zval =  4.0
     Generated using "atomic" code by A. Dal Corso  v.5.0.2 svn rev. 9415
     Shape of augmentation charge: PSQ
     Using radial grid of 1141 points,  4 beta functions with: 
                l(1) =   0
                l(2) =   0
                l(3) =   1
                l(4) =   1
     Q(r) pseudized with 0 coefficients 


     atomic species   valence    mass     pseudopotential
        Si             4.00    28.08550     Si( 1.00)

     No symmetry found



   Cartesian axes

     site n.     atom                  positions (alat units)
         1           Si  tau(   1) = (   0.4404043   0.4375000   0.4375000  )
         2           Si  tau(   2) = (   0.9375000   0.4375000   0.4375000  )
         3           Si  tau(   3) = (   0.4375000   0.9375000   0.4375000  )
         4           Si  tau(   4) = (   0.9375000   0.9375000   0.4375000  )
         5           Si  tau(   5) = (   0.4375000   0.4375000   0.9375000  )
         6           Si  tau(   6) = (   0.9375000   0.4375000   0.9375000  )
         7           Si  tau(   7) = (   0.4375000   0.9375000   0.9375000  )
         8           Si  tau(   8) = (   0.9375000   0.9375000   0.9375000  )
         9           Si  tau(   9) = (   0.4375000   0.1875000   0.1875000  )
        10           Si  tau(  10) = (   0.9375000   0.1875000   0.1875000  )
        11           Si  tau(  11) = (   0.4375000   0.6875000   0.1875000  )
        12           Si  tau(  12) = (   0.9375000   0.6875000   0.1875000  )
        13           Si  tau(  13) = (   0.4375000   0.1875000   0.6875000  )
        14           Si  tau(  14) = (   0.9375000   0.1875000   0.6875000  )
        15           Si  tau(  15) = (   0.4375000   0.6875000   0.6875000  )
        16           Si  tau(  16) = (   0.9375000   0.6875000   0.6875000  )
        17           Si  tau(  17) = (   0.1875000   0.4375000   0.1875000  )
        18           Si  tau(  18) = (   0.6875000   0.4404043   0.1875000  )
        19           Si  tau(  19) = (   0.1875000   0.9375000   0.1875000  )
        20           Si  tau(  20) = (   0.6875000   0.9375000   0.1875000  )
        21           Si  tau(  21) = (   0.1875000   0.4375000   0.6875000  )
        22           Si  tau(  22) = (   0.6875000   0.4375000   0.6875000  )
        23           Si  tau(  23) = (   0.1875000   0.9375000   0.6875000  )
        24           Si  tau(  24) = (   0.6875000   0.9375000   0.6875000  )
        25           Si  tau(  25) = (   0.1875000   0.1875000   0.4375000  )
        26           Si  tau(  26) = (   0.6875000   0.1875000   0.4375000  )
        27           Si  tau(  27) = (   0.1875000   0.6875000   0.4375000  )
        28           Si  tau(  28) = (   0.6875000   0.6875000   0.4375000  )
        29           Si  tau(  29) = (   0.1875000   0.1875000   0.9375000  )
        30           Si  tau(  30) = (   0.6875000   0.1875000   0.9375000  )
        31           Si  tau(  31) = (   0.1875000   0.6875000   0.9375000  )
        32           Si  tau(  32) = (   0.6875000   0.6875000   0.9375000  )
        33           Si  tau(  33) = (   0.0625000   0.0625000   0.0625000  )
        34           Si  tau(  34) = (   0.5625000   0.0625000   0.0625000  )
        35           Si  tau(  35) = (   0.0625000   0.5625000   0.0625000  )
        36           Si  tau(  36) = (   0.5625000   0.5625000   0.0625000  )
        37           Si  tau(  37) = (   0.0625000   0.0625000   0.5625000  )
        38           Si  tau(  38) = (   0.5625000   0.0625000   0.5625000  )
        39           Si  tau(  39) = (   0.0625000   0.5625000   0.5625000  )
        40           Si  tau(  40) = (   0.5625000   0.5625000   0.5625000  )
        41           Si  tau(  41) = (   0.0625000   0.3125000   0.3125000  )
        42           Si  tau(  42) = (   0.5625000   0.3125000   0.3125000  )
        43           Si  tau(  43) = (   0.0625000   0.8125000   0.3125000  )
        44           Si  tau(  44) = (   0.5625000   0.8125000   0.3125000  )
        45           Si  tau(  45) = (   0.0625000   0.3125000   0.8125000  )
        46           Si  tau(  46) = (   0.5625000   0.3125000   0.8125000  )
        47           Si  tau(  47) = (   0.0625000   0.8125000   0.8125000  )
        48           Si  tau(  48) = (   0.5625000   0.8125000   0.8125000  )
        49           Si  tau(  49) = (   0.3125000   0.0625000   0.3125000  )
        50           Si  tau(  50) = (   0.8125000   0.0625000   0.3125000  )
        51           Si  tau(  51) = (   0.3125000   0.5625000   0.3125000  )
        52           Si  tau(  52) = (   0.8125000   0.5625000   0.3125000  )
        53           Si  tau(  53) = (   0.3125000   0.0625000   0.8125000  )
        54           Si  tau(  54) = (   0.8125000   0.0625000   0.8125000  )
        55           Si  tau(  55) = (   0.3125000   0.5625000   0.8125000  )
        56           Si  tau(  56) = (   0.8125000   0.5625000   0.8125000  )
        57           Si  tau(  57) = (   0.3125000   0.3125000   0.0625000  )
        58           Si  tau(  58) = (   0.8125000   0.3125000   0.0625000  )
        59           Si  tau(  59) = (   0.3125000   0.8125000   0.0625000  )
        60           Si  tau(  60) = (   0.8125000   0.8125000   0.0625000  )
        61           Si  tau(  61) = (   0.3125000   0.3125000   0.5625000  )
        62           Si  tau(  62) = (   0.8125000   0.3125000   0.5625000  )
        63           Si  tau(  63) = (   0.3125000   0.8125000   0.5625000  )
        64           Si  tau(  64) = (   0.8125000   0.8125000   0.5625000  )

     number of k points=     4
                       cart. coord. in units 2pi/alat
        k(    1) = (   0.2500000   0.2500000   0.2500000), wk =   0.5000000
        k(    2) = (  -0.2500000  -0.2500000   0.2500000), wk =   0.5000000
        k(    3) = (  -0.2500000   0.2500000  -0.2500000), wk =   0.5000000
        k(    4) = (   0.2500000  -0.2500000  -0.2500000), wk =   0.5000000

     Dense  grid:   697371 G-vectors     FFT dimensions: ( 120, 120, 120)

     Estimated max dynamical RAM per process >       1.08 GB

     Estimated total dynamical RAM >       4.33 GB

     Initial potential from superposition of free atoms

     starting charge  255.96421, renormalised to  256.00000
     Starting wfc are  256 randomized atomic wfcs
     Checking if some PAW data can be deallocated... 

     total cpu time spent up to now is       41.2 secs

     Self-consistent Calculation

     iteration #  1     ecut=    70.00 Ry     beta= 0.70
     Davidson diagonalization with overlap
     ethr =  1.00E-02,  avg # of iterations =  2.0

     Threshold (ethr) on eigenvalues was too large:
     Diagonalizing with lowered threshold

     Davidson diagonalization with overlap
     ethr =  6.98E-04,  avg # of iterations =  1.0

     total cpu time spent up to now is      156.1 secs

     total energy              =   -2990.46248389 Ry
     Harris-Foulkes estimate   =   -2990.88042642 Ry
     estimated scf accuracy    <       1.76639289 Ry

     iteration #  2     ecut=    70.00 Ry     beta= 0.70
     Davidson diagonalization with overlap
     ethr =  6.90E-04,  avg # of iterations =  1.0

     total cpu time spent up to now is      204.8 secs

     total energy              =   -2990.52627314 Ry
     Harris-Foulkes estimate   =   -2990.53058797 Ry
     estimated scf accuracy    <       0.07828357 Ry

     iteration #  3     ecut=    70.00 Ry     beta= 0.70
     Davidson diagonalization with overlap
     ethr =  3.06E-05,  avg # of iterations =  2.8

     total cpu time spent up to now is      262.3 secs

     total energy              =   -2990.53496500 Ry
     Harris-Foulkes estimate   =   -2990.53564046 Ry
     estimated scf accuracy    <       0.00179645 Ry

     iteration #  4     ecut=    70.00 Ry     beta= 0.70
     Davidson diagonalization with overlap
     ethr =  7.02E-07,  avg # of iterations =  4.0

     total cpu time spent up to now is      345.3 secs

     total energy              =   -2990.53552684 Ry
     Harris-Foulkes estimate   =   -2990.53625533 Ry
     estimated scf accuracy    <       0.00207272 Ry

     iteration #  5     ecut=    70.00 Ry     beta= 0.70
     Davidson diagonalization with overlap
     ethr =  7.02E-07,  avg # of iterations =  3.0

     total cpu time spent up to now is      406.7 secs

     total energy              =   -2990.53587579 Ry
     Harris-Foulkes estimate   =   -2990.53594925 Ry
     estimated scf accuracy    <       0.00021314 Ry

     iteration #  6     ecut=    70.00 Ry     beta= 0.70
     Davidson diagonalization with overlap
     ethr =  8.33E-08,  avg # of iterations =  3.0

     total cpu time spent up to now is      470.3 secs

     total energy              =   -2990.53590914 Ry
     Harris-Foulkes estimate   =   -2990.53593090 Ry
     estimated scf accuracy    <       0.00006025 Ry

     iteration #  7     ecut=    70.00 Ry     beta= 0.70
     Davidson diagonalization with overlap
     ethr =  2.35E-08,  avg # of iterations =  2.0

     total cpu time spent up to now is      530.5 secs

     total energy              =   -2990.53591977 Ry
     Harris-Foulkes estimate   =   -2990.53592045 Ry
     estimated scf accuracy    <       0.00000139 Ry

     iteration #  8     ecut=    70.00 Ry     beta= 0.70
     Davidson diagonalization with overlap
     ethr =  5.44E-10,  avg # of iterations =  3.0

     total cpu time spent up to now is      617.0 secs

     total energy              =   -2990.53592069 Ry
     Harris-Foulkes estimate   =   -2990.53592097 Ry
     estimated scf accuracy    <       0.00000051 Ry

     iteration #  9     ecut=    70.00 Ry     beta= 0.70
     Davidson diagonalization with overlap
     ethr =  1.97E-10,  avg # of iterations =  3.0

     total cpu time spent up to now is      678.1 secs

     total energy              =   -2990.53592064 Ry
     Harris-Foulkes estimate   =   -2990.53592080 Ry
     estimated scf accuracy    <       0.00000022 Ry

     iteration # 10     ecut=    70.00 Ry     beta= 0.70
     Davidson diagonalization with overlap
     ethr =  8.62E-11,  avg # of iterations =  2.0

     total cpu time spent up to now is      737.4 secs

     total energy              =   -2990.53592061 Ry
     Harris-Foulkes estimate   =   -2990.53592067 Ry
     estimated scf accuracy    <       0.00000002 Ry

     iteration # 11     ecut=    70.00 Ry     beta= 0.70
     Davidson diagonalization with overlap
     ethr =  8.69E-12,  avg # of iterations =  3.0

     total cpu time spent up to now is      804.9 secs

     total energy              =   -2990.53592062 Ry
     Harris-Foulkes estimate   =   -2990.53592061 Ry
     estimated scf accuracy    <          3.5E-09 Ry

     iteration # 12     ecut=    70.00 Ry     beta= 0.70
     Davidson diagonalization with overlap
     ethr =  1.35E-12,  avg # of iterations =  3.0

     total cpu time spent up to now is      876.4 secs

     total energy              =   -2990.53592062 Ry
     Harris-Foulkes estimate   =   -2990.53592062 Ry
     estimated scf accuracy    <          1.5E-09 Ry

     iteration # 13     ecut=    70.00 Ry     beta= 0.70
     Davidson diagonalization with overlap
     ethr =  5.90E-13,  avg # of iterations =  3.0

     total cpu time spent up to now is      941.3 secs

     End of self-consistent calculation

          k = 0.2500 0.2500 0.2500 ( 87251 PWs)   bands (ev):

    -5.6250  -5.0994  -5.0966  -5.0933  -4.5994  -4.5969  -4.5938  -4.1621
    -4.0658  -4.0634  -4.0597  -3.6555  -3.6520  -3.6469  -3.6449  -3.6440
    -3.6420  -3.4601  -3.4543  -3.4520  -2.9593  -2.9571  -2.9537  -2.5956
    -2.5876  -2.5857  -2.4297  -2.4242  -2.4211  -2.4187  -2.4171  -2.4156
    -0.8885  -0.8807  -0.8780  -0.8760  -0.8729  -0.8712  -0.7853  -0.7778
    -0.7753  -0.6642  -0.6615  -0.6555  -0.5860  -0.5796  -0.5755   0.1226
     0.2029   0.2085   0.2114   0.2134   0.2170   0.2203   1.0782   1.0829
     1.0877   1.4166   1.4171   1.4214   2.0248   2.0270   2.0287   2.0296
     2.0308   2.0345   2.0868   2.0900   2.0914   2.6354   2.6389   2.6402
     2.7401   2.7410   2.7426   2.7454   2.7467   2.7507   2.7942   2.7999
     2.8023   3.1023   3.1043   3.1079   3.1089   3.1096   3.1115   3.3712
     3.3733   3.3742   3.3858   3.3864   3.3903   3.7299   3.7322   3.7356
     3.7490   3.7546   3.7566   3.8380   3.8407   3.8433   4.1029   4.1080
     4.1120   4.1146   4.1155   4.1158   4.1521   4.1549   4.1581   4.4088
     4.4711   4.4740   4.4749   4.7133   4.7162   4.7199   4.7703   4.7738
     4.7782   4.9350   4.9399   5.2423   5.2457   5.2511   5.7235   5.7293

          k =-0.2500-0.2500 0.2500 ( 87251 PWs)   bands (ev):

    -5.6251  -5.0993  -5.0960  -5.0933  -4.5998  -4.5965  -4.5939  -4.1641
    -4.0673  -4.0634  -4.0606  -3.6530  -3.6500  -3.6484  -3.6474  -3.6432
    -3.6374  -3.4576  -3.4553  -3.4494  -2.9655  -2.9595  -2.9564  -2.5926
    -2.5909  -2.5832  -2.4257  -2.4243  -2.4227  -2.4214  -2.4161  -2.4126
    -0.8851  -0.8822  -0.8806  -0.8785  -0.8752  -0.8714  -0.7855  -0.7830
    -0.7754  -0.6685  -0.6630  -0.6601  -0.5776  -0.5742  -0.5635   0.1301
     0.2014   0.2056   0.2078   0.2105   0.2122   0.2180   1.0828   1.0856
     1.0950   1.4151   1.4178   1.4219   2.0251   2.0264   2.0287   2.0298
     2.0308   2.0329   2.0843   2.0872   2.0902   2.6399   2.6413   2.6449
     2.7362   2.7383   2.7410   2.7429   2.7446   2.7476   2.7911   2.7945
     2.7974   3.1024   3.1066   3.1071   3.1080   3.1094   3.1129   3.3691
     3.3698   3.3724   3.3821   3.3852   3.3878   3.7339   3.7367   3.7390
     3.7562   3.7585   3.7643   3.8357   3.8389   3.8405   4.1122   4.1137
     4.1141   4.1159   4.1198   4.1259   4.1493   4.1527   4.1554   4.4172
     4.4669   4.4678   4.4711   4.7093   4.7133   4.7148   4.7790   4.7808
     4.7917   4.9324   4.9376   5.2368   5.2415   5.2440   5.7187   5.7244

          k =-0.2500 0.2500-0.2500 ( 87251 PWs)   bands (ev):

    -5.6250  -5.0997  -5.0956  -5.0937  -4.5998  -4.5959  -4.5944  -4.1631
    -4.0668  -4.0624  -4.0610  -3.6550  -3.6500  -3.6473  -3.6469  -3.6449
    -3.6383  -3.4590  -3.4549  -3.4506  -2.9616  -2.9578  -2.9563  -2.5931
    -2.5892  -2.5856  -2.4288  -2.4231  -2.4213  -2.4209  -2.4188  -2.4118
    -0.8871  -0.8812  -0.8789  -0.8779  -0.8754  -0.8696  -0.7838  -0.7804
    -0.7769  -0.6675  -0.6623  -0.6567  -0.5832  -0.5768  -0.5681   0.1263
     0.2035   0.2068   0.2097   0.2112   0.2144   0.2191   1.0793   1.0852
     1.0916   1.4140   1.4184   1.4225   2.0238   2.0273   2.0282   2.0302
     2.0317   2.0334   2.0856   2.0878   2.0917   2.6379   2.6399   2.6425
     2.7375   2.7402   2.7420   2.7447   2.7458   2.7482   2.7917   2.7973
     2.8009   3.1014   3.1060   3.1074   3.1079   3.1094   3.1132   3.3691
     3.3724   3.3739   3.3823   3.3862   3.3899   3.7312   3.7344   3.7376
     3.7531   3.7568   3.7601   3.8372   3.8391   3.8423   4.1056   4.1121
     4.1141   4.1149   4.1160   4.1223   4.1510   4.1531   4.1573   4.4132
     4.4674   4.4714   4.4740   4.7117   4.7139   4.7176   4.7731   4.7785
     4.7853   4.9319   4.9406   5.2398   5.2428   5.2481   5.7190   5.7289

          k = 0.2500-0.2500-0.2500 ( 87251 PWs)   bands (ev):

    -5.6250  -5.0989  -5.0970  -5.0931  -4.5994  -4.5973  -4.5935  -4.1631
    -4.0662  -4.0641  -4.0596  -3.6530  -3.6492  -3.6482  -3.6473  -3.6443
    -3.6404  -3.4589  -3.4548  -3.4506  -2.9627  -2.9595  -2.9536  -2.5931
    -2.5892  -2.5856  -2.4278  -2.4232  -2.4216  -2.4211  -2.4180  -2.4131
    -0.8879  -0.8813  -0.8787  -0.8783  -0.8747  -0.8691  -0.7837  -0.7806
    -0.7770  -0.6676  -0.6622  -0.6567  -0.5801  -0.5773  -0.5707   0.1262
     0.2028   0.2068   0.2092   0.2104   0.2154   0.2201   1.0804   1.0847
     1.0909   1.4140   1.4181   1.4228   2.0240   2.0277   2.0283   2.0295
     2.0315   2.0335   2.0853   2.0878   2.0918   2.6377   2.6403   2.6423
     2.7378   2.7394   2.7418   2.7444   2.7464   2.7485   2.7923   2.7964
     2.8012   3.1031   3.1045   3.1068   3.1071   3.1100   3.1138   3.3695
     3.3712   3.3746   3.3821   3.3861   3.3903   3.7320   3.7349   3.7369
     3.7525   3.7559   3.7612   3.8363   3.8389   3.8433   4.1072   4.1119
     4.1134   4.1144   4.1160   4.1223   4.1499   4.1530   4.1582   4.4129
     4.4676   4.4708   4.4747   4.7107   4.7139   4.7187   4.7745   4.7783
     4.7840   4.9318   4.9405   5.2385   5.2429   5.2494   5.7191   5.7289

     highest occupied level (ev):     5.7293

!    total energy              =   -2990.53592062 Ry
     Harris-Foulkes estimate   =   -2990.53592062 Ry
     estimated scf accuracy    <          5.2E-10 Ry

     total all-electron energy =    -37124.671474 Ry

     The total energy is the sum of the following terms:

     one-electron contribution =     178.60402580 Ry
     hartree contribution      =      35.70179686 Ry
     xc contribution           =    -391.44049885 Ry
     ewald contribution        =    -534.00623545 Ry
     one-center paw contrib.   =   -2279.39500898 Ry

     convergence has been achieved in  13 iterations

     Forces acting on atoms (cartesian axes, Ry/au):

     atom    1 type  1   force =    -0.01598022   -0.00052403    0.00010811
     atom    2 type  1   force =    -0.00009137   -0.00052830   -0.00011422
     atom    3 type  1   force =     0.00004497    0.00000036    0.00000980
     atom    4 type  1   force =    -0.00001627   -0.00000082   -0.00000867
     atom    5 type  1   force =     0.00016822   -0.00052842    0.00011467
     atom    6 type  1   force =     0.00010271   -0.00052359   -0.00010920
     atom    7 type  1   force =    -0.00046552   -0.00000118    0.00000920
     atom    8 type  1   force =     0.00003306   -0.00000008   -0.00001014
     atom    9 type  1   force =    -0.00030024    0.00034527    0.00000361
     atom   10 type  1   force =    -0.00022834    0.00024029    0.00011976
     atom   11 type  1   force =    -0.00075636    0.00034790   -0.00022368
     atom   12 type  1   force =     0.00023317    0.00024760    0.00010498
     atom   13 type  1   force =    -0.00060152   -0.00006879    0.00009998
     atom   14 type  1   force =     0.00007705    0.00003182    0.00001826
     atom   15 type  1   force =    -0.00045224   -0.00007020   -0.00012367
     atom   16 type  1   force =    -0.00007683    0.00003390   -0.00000003
     atom   17 type  1   force =     0.00023076   -0.00005532    0.00022785
     atom   18 type  1   force =     0.00023498   -0.01597511   -0.00023514
     atom   19 type  1   force =     0.00004223   -0.00001638   -0.00007638
     atom   20 type  1   force =     0.00004254    0.00001232    0.00007673
     atom   21 type  1   force =     0.00023026   -0.00036535   -0.00022865
     atom   22 type  1   force =     0.00023841    0.00016775    0.00023283
     atom   23 type  1   force =     0.00004174    0.00003361    0.00007623
     atom   24 type  1   force =     0.00004310    0.00000305   -0.00007658
     atom   25 type  1   force =     0.00024009    0.00026919   -0.00003167
     atom   26 type  1   force =     0.00034849   -0.00000021   -0.00034482
     atom   27 type  1   force =     0.00024008   -0.00018502    0.00003417
     atom   28 type  1   force =     0.00035237    0.00047154    0.00034588
     atom   29 type  1   force =     0.00003244   -0.00003514   -0.00008642
     atom   30 type  1   force =    -0.00006772    0.00030734    0.00021769
     atom   31 type  1   force =     0.00003252    0.00011953    0.00008578
     atom   32 type  1   force =    -0.00007145    0.00016263   -0.00022277
     atom   33 type  1   force =    -0.00004691    0.00005709    0.00000502
     atom   34 type  1   force =     0.00021758    0.00001443   -0.00001010
     atom   35 type  1   force =    -0.00001321   -0.00003409   -0.00002515
     atom   36 type  1   force =    -0.00276409    0.00397831   -0.00266518
     atom   37 type  1   force =    -0.00000589    0.00000226   -0.00000545
     atom   38 type  1   force =    -0.00008750    0.00006438    0.00002549
     atom   39 type  1   force =    -0.00004125    0.00029373    0.00000978
     atom   40 type  1   force =     0.00387755    0.00264447    0.00266614
     atom   41 type  1   force =     0.00002421   -0.00009726   -0.00008906
     atom   42 type  1   force =     0.00641459    0.00110254   -0.00518120
     atom   43 type  1   force =     0.00005241    0.00000330   -0.00005542
     atom   44 type  1   force =    -0.00002245   -0.00005128   -0.00008785
     atom   45 type  1   force =     0.00005332    0.00022580   -0.00005293
     atom   46 type  1   force =    -0.00000889   -0.00010998   -0.00007613
     atom   47 type  1   force =     0.00000842   -0.00005274   -0.00006290
     atom   48 type  1   force =     0.00028469    0.00000087   -0.00005455
     atom   49 type  1   force =    -0.00003469   -0.00001161    0.00007922
     atom   50 type  1   force =     0.00006653   -0.00003988    0.00006828
     atom   51 type  1   force =     0.00384959   -0.00254290    0.00253136
     atom   52 type  1   force =     0.00269216    0.00389057    0.00274152
     atom   53 type  1   force =     0.00028450   -0.00005033    0.00005827
     atom   54 type  1   force =     0.00000484   -0.00000578    0.00005487
     atom   55 type  1   force =    -0.00003126    0.00020440    0.00006568
     atom   56 type  1   force =     0.00007844   -0.00008926    0.00006528
     atom   57 type  1   force =    -0.00009614   -0.00000713    0.00001456
     atom   58 type  1   force =    -0.00245235    0.00383889    0.00245504
     atom   59 type  1   force =     0.00022595    0.00005514    0.00000161
     atom   60 type  1   force =    -0.00005992    0.00001820    0.00000703
     atom   61 type  1   force =     0.00378340    0.00273238   -0.00245287
     atom   62 type  1   force =    -0.00006371   -0.00002216   -0.00000071
     atom   63 type  1   force =    -0.00009010    0.00001643   -0.00002055
     atom   64 type  1   force =    -0.00000091    0.00005500   -0.00000256

     Total force =     0.027520     Total SCF correction =     0.000045


     Computing stress (Cartesian axis) and pressure

          total   stress  (Ry/bohr**3)                   (kbar)     P=    0.12
   0.00000074  -0.00000000   0.00000238          0.11     -0.00      0.35
  -0.00000000   0.00000074   0.00000238         -0.00      0.11      0.35
   0.00000238   0.00000238   0.00000090          0.35      0.35      0.13


     init_run     :     40.26s CPU     41.09s WALL (       1 calls)
     electrons    :    879.93s CPU    900.08s WALL (       1 calls)
     forces       :     11.62s CPU     11.82s WALL (       1 calls)
     stress       :     56.45s CPU     56.73s WALL (       1 calls)

     Called by init_run:
     wfcinit      :     37.14s CPU     37.85s WALL (       1 calls)
     potinit      :      1.07s CPU      1.09s WALL (       1 calls)

     Called by electrons:
     c_bands      :    731.23s CPU    747.96s WALL (      14 calls)
     sum_band     :    132.02s CPU    134.56s WALL (      14 calls)
     v_of_rho     :      5.41s CPU      5.57s WALL (      14 calls)
     newd         :      2.95s CPU      3.73s WALL (      14 calls)
     PAW_pot      :      8.12s CPU      8.11s WALL (      14 calls)
     mix_rho      :      1.23s CPU      1.25s WALL (      14 calls)

     Called by c_bands:
     init_us_2    :      7.80s CPU      7.82s WALL (     124 calls)
     cegterg      :    716.45s CPU    733.13s WALL (      56 calls)

     Called by sum_band:
     sum_band:bec :      0.02s CPU      0.02s WALL (      56 calls)
     addusdens    :      3.54s CPU      4.35s WALL (      14 calls)

     Called by *egterg:
     h_psi        :    636.50s CPU    646.88s WALL (     203 calls)
     s_psi        :     36.85s CPU     36.84s WALL (     203 calls)
     g_psi        :      1.27s CPU      1.29s WALL (     143 calls)
     cdiaghg      :      4.72s CPU      4.73s WALL (     195 calls)

     Called by h_psi:
     h_psi:pot    :    632.43s CPU    642.74s WALL (     203 calls)
     h_psi:calbec :     36.61s CPU     36.64s WALL (     203 calls)
     vloc_psi     :    559.15s CPU    569.42s WALL (     203 calls)
     add_vuspsi   :     36.67s CPU     36.68s WALL (     203 calls)

     General routines
     calbec       :     53.74s CPU     53.81s WALL (     279 calls)
     fft          :      4.49s CPU      4.80s WALL (     209 calls)
     fftw         :    564.52s CPU    576.34s WALL (   48986 calls)

     Parallel routines
     fft_scatt_xy :     95.42s CPU     95.65s WALL (   49195 calls)
     fft_scatt_yz :    104.65s CPU    110.62s WALL (   49195 calls)

     PWSCF        : 16m28.35s CPU    16m49.84s WALL


   This run was terminated on:   0:41: 8  25Oct2021            

=------------------------------------------------------------------------------=
   JOB DONE.
=------------------------------------------------------------------------------=
Note: The following floating-point exceptions are signalling: IEEE_UNDERFLOW_FLAG IEEE_DENORMAL
